nqpoint: 204    
npath: 4      
segment_nqpoint:
- 51
- 51
- 51
- 51
reciprocal_lattice:
- [   0.25087807,   0.00000000,   0.00000000 ] # a*
- [   0.00000000,   0.25087807,   0.00000000 ] # b*
- [   0.00000000,   0.00000000,   0.24814844 ] # c*
natom: 5      
lattice:
- [     3.986000000000000,     0.000000000000000,     0.000000000000000 ] # a
- [     0.000000000000000,     3.986000000000000,     0.000000000000000 ] # b
- [     0.000000000000000,     0.000000000000000,     4.029846000000000 ] # c
points:
- symbol: Ba # 1
  coordinates: [  0.000000000000000,  0.000000000000000,  0.990324818605875 ]
  mass: 137.327000
- symbol: Ti # 2
  coordinates: [  0.500000000000000,  0.500000000000000,  0.475197039447481 ]
  mass: 47.867000
- symbol: O  # 3
  coordinates: [  0.500000000000000,  0.500000000000000,  0.014339983555961 ]
  mass: 15.999400
- symbol: O  # 4
  coordinates: [  0.000000000000000,  0.500000000000000,  0.505069079195342 ]
  mass: 15.999400
- symbol: O  # 5
  coordinates: [  0.500000000000000,  0.000000000000000,  0.505069079195342 ]
  mass: 15.999400

phonon:
- q-position: [    0.0000000,    0.0000000,    0.0000000 ]
  distance:    0.0000000
  band:
  - # 1
    frequency:   -4.2991154290
    eigenvector:
    - # atom 1
      - [  0.00005851259339,  0.00000000000000 ]
      - [  0.00146063264872,  0.00000000000000 ]
      - [ -0.00000000000000,  0.00000000000000 ]
    - # atom 2
      - [  0.02761418393562,  0.00000000000000 ]
      - [  0.68932474684884,  0.00000000000000 ]
      - [ -0.00000000000000,  0.00000000000000 ]
    - # atom 3
      - [ -0.01160280259358,  0.00000000000000 ]
      - [ -0.28963734648848,  0.00000000000000 ]
      - [ -0.00000000000000,  0.00000000000000 ]
    - # atom 4
      - [ -0.02278232845552,  0.00000000000000 ]
      - [ -0.34045238655070,  0.00000000000000 ]
      - [ -0.00000000000000,  0.00000000000000 ]
    - # atom 5
      - [ -0.01363844090395,  0.00000000000000 ]
      - [ -0.56870856049366,  0.00000000000000 ]
      - [ -0.00000000000000,  0.00000000000000 ]
  - # 2
    frequency:   -4.2991154290
    eigenvector:
    - # atom 1
      - [ -0.00146063264872,  0.00000000000000 ]
      - [  0.00005851259339,  0.00000000000000 ]
      - [  0.00000000000000,  0.00000000000000 ]
    - # atom 2
      - [ -0.68932474684884,  0.00000000000000 ]
      - [  0.02761418393562,  0.00000000000000 ]
      - [  0.00000000000000,  0.00000000000000 ]
    - # atom 3
      - [  0.28963734648848,  0.00000000000000 ]
      - [ -0.01160280259358,  0.00000000000000 ]
      - [  0.00000000000000,  0.00000000000000 ]
    - # atom 4
      - [  0.56870856049366,  0.00000000000000 ]
      - [ -0.01363844090395,  0.00000000000000 ]
      - [  0.00000000000000,  0.00000000000000 ]
    - # atom 5
      - [  0.34045238655070,  0.00000000000000 ]
      - [ -0.02278232845552,  0.00000000000000 ]
      - [  0.00000000000000,  0.00000000000000 ]
  - # 3
    frequency:   -0.0008948670
    eigenvector:
    - # atom 1
      - [  0.00000000004207,  0.00000000000000 ]
      - [  0.00000000206102,  0.00000000000000 ]
      - [ -0.76747048457836,  0.00000000000000 ]
    - # atom 2
      - [  0.00000000002488,  0.00000000000000 ]
      - [  0.00000000121861,  0.00000000000000 ]
      - [ -0.45293060920258,  0.00000000000000 ]
    - # atom 3
      - [  0.00000000001436,  0.00000000000000 ]
      - [  0.00000000070339,  0.00000000000000 ]
      - [ -0.26190166352719,  0.00000000000000 ]
    - # atom 4
      - [  0.00000000001435,  0.00000000000000 ]
      - [  0.00000000070338,  0.00000000000000 ]
      - [ -0.26196415517217,  0.00000000000000 ]
    - # atom 5
      - [  0.00000000001436,  0.00000000000000 ]
      - [  0.00000000070305,  0.00000000000000 ]
      - [ -0.26196415517217,  0.00000000000000 ]
  - # 4
    frequency:    0.0018993154
    eigenvector:
    - # atom 1
      - [ -0.76721174047513,  0.00000000000000 ]
      - [  0.00159995323684,  0.00000000000000 ]
      - [ -0.00000000003779,  0.00000000000000 ]
    - # atom 2
      - [ -0.45362501364106,  0.00000000000000 ]
      - [  0.00094599544115,  0.00000000000000 ]
      - [ -0.00000000002230,  0.00000000000000 ]
    - # atom 3
      - [ -0.26183489756740,  0.00000000000000 ]
      - [  0.00054603386494,  0.00000000000000 ]
      - [ -0.00000000001290,  0.00000000000000 ]
    - # atom 4
      - [ -0.26171008498976,  0.00000000000000 ]
      - [  0.00054602967393,  0.00000000000000 ]
      - [ -0.00000000001290,  0.00000000000000 ]
    - # atom 5
      - [ -0.26183288788627,  0.00000000000000 ]
      - [  0.00054577357918,  0.00000000000000 ]
      - [ -0.00000000001290,  0.00000000000000 ]
  - # 5
    frequency:    0.0018993154
    eigenvector:
    - # atom 1
      - [  0.00159995323684,  0.00000000000000 ]
      - [  0.76721174047513,  0.00000000000000 ]
      - [  0.00000000206180,  0.00000000000000 ]
    - # atom 2
      - [  0.00094599544115,  0.00000000000000 ]
      - [  0.45362501364106,  0.00000000000000 ]
      - [  0.00000000121679,  0.00000000000000 ]
    - # atom 3
      - [  0.00054603386494,  0.00000000000000 ]
      - [  0.26183489756740,  0.00000000000000 ]
      - [  0.00000000070359,  0.00000000000000 ]
    - # atom 4
      - [  0.00054577357919,  0.00000000000000 ]
      - [  0.26183288788627,  0.00000000000000 ]
      - [  0.00000000070376,  0.00000000000000 ]
    - # atom 5
      - [  0.00054602967393,  0.00000000000000 ]
      - [  0.26171008498976,  0.00000000000000 ]
      - [  0.00000000070376,  0.00000000000000 ]
  - # 6
    frequency:    5.3083716032
    eigenvector:
    - # atom 1
      - [  0.00000000000000,  0.00000000000000 ]
      - [ -0.00000000000001,  0.00000000000000 ]
      - [  0.63952231209928,  0.00000000000000 ]
    - # atom 2
      - [  0.00000000000000,  0.00000000000000 ]
      - [  0.00000000000001,  0.00000000000000 ]
      - [ -0.49172286442931,  0.00000000000000 ]
    - # atom 3
      - [ -0.00000000000000,  0.00000000000000 ]
      - [  0.00000000000000,  0.00000000000000 ]
      - [ -0.33608292654470,  0.00000000000000 ]
    - # atom 4
      - [ -0.00000000000000,  0.00000000000000 ]
      - [  0.00000000000001,  0.00000000000000 ]
      - [ -0.34370634516239,  0.00000000000000 ]
    - # atom 5
      - [  0.00000000000000,  0.00000000000000 ]
      - [  0.00000000000001,  0.00000000000000 ]
      - [ -0.34370634516239,  0.00000000000000 ]
  - # 7
    frequency:    5.4202222456
    eigenvector:
    - # atom 1
      - [ -0.64124779016363,  0.00000000000000 ]
      - [ -0.00157782551456,  0.00000000000000 ]
      - [  0.00000000000000,  0.00000000000000 ]
    - # atom 2
      - [  0.54382592409481,  0.00000000000000 ]
      - [  0.00133811364605,  0.00000000000000 ]
      - [ -0.00000000000000,  0.00000000000000 ]
    - # atom 3
      - [  0.30035070133356,  0.00000000000000 ]
      - [  0.00073902944720,  0.00000000000000 ]
      - [ -0.00000000000000,  0.00000000000000 ]
    - # atom 4
      - [  0.30764152010084,  0.00000000000000 ]
      - [  0.00080934959315,  0.00000000000000 ]
      - [ -0.00000000000000,  0.00000000000000 ]
    - # atom 5
      - [  0.32892967776787,  0.00000000000000 ]
      - [  0.00075696890843,  0.00000000000000 ]
      - [ -0.00000000000000,  0.00000000000000 ]
  - # 8
    frequency:    5.4202222456
    eigenvector:
    - # atom 1
      - [ -0.00157782551456,  0.00000000000000 ]
      - [  0.64124779016363,  0.00000000000000 ]
      - [  0.00000000000001,  0.00000000000000 ]
    - # atom 2
      - [  0.00133811364605,  0.00000000000000 ]
      - [ -0.54382592409481,  0.00000000000000 ]
      - [ -0.00000000000001,  0.00000000000000 ]
    - # atom 3
      - [  0.00073902944720,  0.00000000000000 ]
      - [ -0.30035070133356,  0.00000000000000 ]
      - [ -0.00000000000001,  0.00000000000000 ]
    - # atom 4
      - [  0.00075696890843,  0.00000000000000 ]
      - [ -0.32892967776787,  0.00000000000000 ]
      - [ -0.00000000000001,  0.00000000000000 ]
    - # atom 5
      - [  0.00080934959315,  0.00000000000000 ]
      - [ -0.30764152010084,  0.00000000000000 ]
      - [ -0.00000000000001,  0.00000000000000 ]
  - # 9
    frequency:    8.7077283995
    eigenvector:
    - # atom 1
      - [  0.00000000000000,  0.00000000000000 ]
      - [ -0.00000000000000,  0.00000000000000 ]
      - [  0.04472369478649,  0.00000000000000 ]
    - # atom 2
      - [  0.00000000000000,  0.00000000000000 ]
      - [ -0.00000000000000,  0.00000000000000 ]
      - [ -0.74070391352980,  0.00000000000000 ]
    - # atom 3
      - [ -0.00000000000000,  0.00000000000000 ]
      - [  0.00000000000001,  0.00000000000000 ]
      - [  0.30687195685762,  0.00000000000000 ]
    - # atom 4
      - [ -0.00000000000000,  0.00000000000000 ]
      - [ -0.00000000000000,  0.00000000000000 ]
      - [  0.42141850084012,  0.00000000000000 ]
    - # atom 5
      - [  0.00000000000000,  0.00000000000000 ]
      - [  0.00000000000000,  0.00000000000000 ]
      - [  0.42141850084011,  0.00000000000000 ]
  - # 10
    frequency:    8.8340596320
    eigenvector:
    - # atom 1
      - [  0.00000021842833,  0.00000000000000 ]
      - [ -0.01295008542322,  0.00000000000000 ]
      - [ -0.00000000000000,  0.00000000000000 ]
    - # atom 2
      - [  0.00000028761714,  0.00000000000000 ]
      - [ -0.01705212183436,  0.00000000000000 ]
      - [  0.00000000000001,  0.00000000000000 ]
    - # atom 3
      - [ -0.00001238796140,  0.00000000000000 ]
      - [  0.73445216314030,  0.00000000000000 ]
      - [ -0.00000000000000,  0.00000000000000 ]
    - # atom 4
      - [ -0.00000019000771,  0.00000000000000 ]
      - [ -0.67822904524513,  0.00000000000000 ]
      - [  0.00000000000002,  0.00000000000000 ]
    - # atom 5
      - [  0.00001143964938,  0.00000000000000 ]
      - [  0.01126509602244,  0.00000000000000 ]
      - [ -0.00000000000002,  0.00000000000000 ]
  - # 11
    frequency:    8.8340596320
    eigenvector:
    - # atom 1
      - [ -0.01295008542322,  0.00000000000000 ]
      - [ -0.00000021842833,  0.00000000000000 ]
      - [  0.00000000000000,  0.00000000000000 ]
    - # atom 2
      - [ -0.01705212183436,  0.00000000000000 ]
      - [ -0.00000028761714,  0.00000000000000 ]
      - [ -0.00000000000000,  0.00000000000000 ]
    - # atom 3
      - [  0.73445216314030,  0.00000000000000 ]
      - [  0.00001238796140,  0.00000000000000 ]
      - [  0.00000000000000,  0.00000000000000 ]
    - # atom 4
      - [  0.01126509602244,  0.00000000000000 ]
      - [ -0.00001143964938,  0.00000000000000 ]
      - [  0.00000000000000,  0.00000000000000 ]
    - # atom 5
      - [ -0.67822904524513,  0.00000000000000 ]
      - [  0.00000019000771,  0.00000000000000 ]
      - [  0.00000000000000,  0.00000000000000 ]
  - # 12
    frequency:    8.8606644286
    eigenvector:
    - # atom 1
      - [ -0.00000000000000,  0.00000000000000 ]
      - [ -0.00000000000000,  0.00000000000000 ]
      - [  0.00000000000000,  0.00000000000000 ]
    - # atom 2
      - [  0.00000000000000,  0.00000000000000 ]
      - [ -0.00000000000000,  0.00000000000000 ]
      - [ -0.00000000000000,  0.00000000000000 ]
    - # atom 3
      - [  0.00000000000000,  0.00000000000000 ]
      - [  0.00000000000002,  0.00000000000000 ]
      - [  0.00000000000000,  0.00000000000000 ]
    - # atom 4
      - [ -0.00000000000000,  0.00000000000000 ]
      - [ -0.00000000000002,  0.00000000000000 ]
      - [ -0.70710678118655,  0.00000000000000 ]
    - # atom 5
      - [ -0.00000000000000,  0.00000000000000 ]
      - [  0.00000000000000,  0.00000000000000 ]
      - [  0.70710678118655,  0.00000000000000 ]
  - # 13
    frequency:   14.0855867622
    eigenvector:
    - # atom 1
      - [  0.00000000000000,  0.00000000000000 ]
      - [  0.00353919760546,  0.00000000000000 ]
      - [ -0.00000000000000,  0.00000000000000 ]
    - # atom 2
      - [  0.00000000000000,  0.00000000000000 ]
      - [ -0.14917473376643,  0.00000000000000 ]
      - [  0.00000000000000,  0.00000000000000 ]
    - # atom 3
      - [ -0.00000000000000,  0.00000000000000 ]
      - [  0.46667622684572,  0.00000000000000 ]
      - [ -0.00000000000000,  0.00000000000000 ]
    - # atom 4
      - [ -0.00000000000000,  0.00000000000000 ]
      - [  0.49715126489445,  0.00000000000000 ]
      - [  0.00000000000000,  0.00000000000000 ]
    - # atom 5
      - [ -0.00000000000000,  0.00000000000000 ]
      - [ -0.71609237672029,  0.00000000000000 ]
      - [  0.00000000000000,  0.00000000000000 ]
  - # 14
    frequency:   14.0855867622
    eigenvector:
    - # atom 1
      - [  0.00353919760546,  0.00000000000000 ]
      - [  0.00000000000000,  0.00000000000000 ]
      - [  0.00000000000000,  0.00000000000000 ]
    - # atom 2
      - [ -0.14917473376643,  0.00000000000000 ]
      - [ -0.00000000000000,  0.00000000000000 ]
      - [ -0.00000000000000,  0.00000000000000 ]
    - # atom 3
      - [  0.46667622684572,  0.00000000000000 ]
      - [  0.00000000000000,  0.00000000000000 ]
      - [  0.00000000000000,  0.00000000000000 ]
    - # atom 4
      - [ -0.71609237672029,  0.00000000000000 ]
      - [  0.00000000000000,  0.00000000000000 ]
      - [ -0.00000000000000,  0.00000000000000 ]
    - # atom 5
      - [  0.49715126489445,  0.00000000000000 ]
      - [ -0.00000000000000,  0.00000000000000 ]
      - [ -0.00000000000000,  0.00000000000000 ]
  - # 15
    frequency:   15.4071618175
    eigenvector:
    - # atom 1
      - [ -0.00000000000000, -0.00000000000000 ]
      - [  0.00000000000000,  0.00000000000000 ]
      - [ -0.00024238997321,  0.00000000000000 ]
    - # atom 2
      - [ -0.00000000000000,  0.00000000000000 ]
      - [  0.00000000000000,  0.00000000000000 ]
      - [  0.06648458713463,  0.00000000000000 ]
    - # atom 3
      - [  0.00000000000000,  0.00000000000000 ]
      - [ -0.00000000000000,  0.00000000000000 ]
      - [ -0.85104957976678,  0.00000000000000 ]
    - # atom 4
      - [ -0.00000000000000,  0.00000000000000 ]
      - [ -0.00000000000000,  0.00000000000000 ]
      - [  0.36830310458875,  0.00000000000000 ]
    - # atom 5
      - [  0.00000000000000,  0.00000000000000 ]
      - [  0.00000000000000,  0.00000000000000 ]
      - [  0.36830310458875,  0.00000000000000 ]

- q-position: [    0.0100000,    0.0000000,    0.0000000 ]
  distance:    0.0025088
  band:
  - # 1
    frequency:   -4.2977235607
    eigenvector:
    - # atom 1
      - [  0.00000000000000,  0.00000000000000 ]
      - [ -0.00162101663345,  0.00000000000000 ]
      - [  0.00000000000000,  0.00000000000000 ]
    - # atom 2
      - [  0.00000000000000,  0.00000000000000 ]
      - [ -0.69016671557533,  0.00000000000000 ]
      - [ -0.00000000000000,  0.00000000000000 ]
    - # atom 3
      - [ -0.00000000000000,  0.00000000000000 ]
      - [  0.28980591707186,  0.00000000000000 ]
      - [ -0.00000000000000,  0.00000000000000 ]
    - # atom 4
      - [ -0.00000000000000,  0.00000000000000 ]
      - [  0.34046856267082,  0.00000000000000 ]
      - [ -0.00000000000000,  0.00000000000000 ]
    - # atom 5
      - [ -0.00000000000000,  0.00000000000000 ]
      - [  0.56899996949037,  0.00000000000000 ]
      - [ -0.00000000000000,  0.00000000000000 ]
  - # 2
    frequency:   -4.2947627355
    eigenvector:
    - # atom 1
      - [  0.00176042274970,  0.00000000000000 ]
      - [  0.00000000000000,  0.00000000000000 ]
      - [ -0.00000000000000,  0.00000000000000 ]
    - # atom 2
      - [  0.69041062799168,  0.00000000000000 ]
      - [  0.00000000000000,  0.00000000000000 ]
      - [ -0.00000000000000,  0.00000000000000 ]
    - # atom 3
      - [ -0.28957213432191,  0.00000000000000 ]
      - [ -0.00000000000000,  0.00000000000000 ]
      - [ -0.00000000000000,  0.00000000000000 ]
    - # atom 4
      - [ -0.56884903598028,  0.00000000000000 ]
      - [ -0.00000000000000,  0.00000000000000 ]
      - [ -0.00000000000000,  0.00000000000000 ]
    - # atom 5
      - [ -0.34042446879806,  0.00000000000000 ]
      - [ -0.00000000000000,  0.00000000000000 ]
      - [ -0.00000000000000,  0.00000000000000 ]
  - # 3
    frequency:    0.1039425239
    eigenvector:
    - # atom 1
      - [  0.00000000000572,  0.00000000000000 ]
      - [ -0.76736242345132,  0.00000000000000 ]
      - [ -0.00000000039488,  0.00000000000000 ]
    - # atom 2
      - [  0.00000000000338,  0.00000000000000 ]
      - [ -0.45323192403820,  0.00000000000000 ]
      - [ -0.00000000023294,  0.00000000000000 ]
    - # atom 3
      - [  0.00000000000195,  0.00000000000000 ]
      - [ -0.26193423012308,  0.00000000000000 ]
      - [ -0.00000000013467,  0.00000000000000 ]
    - # atom 4
      - [  0.00000000000195,  0.00000000000000 ]
      - [ -0.26184945303561,  0.00000000000000 ]
      - [ -0.00000000013468,  0.00000000000000 ]
    - # atom 5
      - [  0.00000000000195,  0.00000000000000 ]
      - [ -0.26184166425978,  0.00000000000000 ]
      - [ -0.00000000013473,  0.00000000000000 ]
  - # 4
    frequency:    0.1042184211
    eigenvector:
    - # atom 1
      - [ -0.00000000000326,  0.00000000000000 ]
      - [  0.00000000039474,  0.00000000000000 ]
      - [ -0.76763446008694,  0.00000000000000 ]
    - # atom 2
      - [ -0.00000000000193,  0.00000000000000 ]
      - [  0.00000000023315,  0.00000000000000 ]
      - [ -0.45283371038785,  0.00000000000000 ]
    - # atom 3
      - [ -0.00000000000111,  0.00000000000000 ]
      - [  0.00000000013474,  0.00000000000000 ]
      - [ -0.26178724887050,  0.00000000000000 ]
    - # atom 4
      - [ -0.00000000000111,  0.00000000000000 ]
      - [  0.00000000013470,  0.00000000000000 ]
      - [ -0.26180728984776,  0.00000000000000 ]
    - # atom 5
      - [ -0.00000000000111,  0.00000000000000 ]
      - [  0.00000000013469,  0.00000000000000 ]
      - [ -0.26192240403370,  0.00000000000000 ]
  - # 5
    frequency:    0.1058478605
    eigenvector:
    - # atom 1
      - [ -0.76737615695486,  0.00000000000000 ]
      - [ -0.00000000000572,  0.00000000000000 ]
      - [  0.00000000000327,  0.00000000000000 ]
    - # atom 2
      - [ -0.45299946592202,  0.00000000000000 ]
      - [ -0.00000000000338,  0.00000000000000 ]
      - [  0.00000000000193,  0.00000000000000 ]
    - # atom 3
      - [ -0.26195285884318,  0.00000000000000 ]
      - [ -0.00000000000195,  0.00000000000000 ]
      - [  0.00000000000111,  0.00000000000000 ]
    - # atom 4
      - [ -0.26204790148719,  0.00000000000000 ]
      - [ -0.00000000000195,  0.00000000000000 ]
      - [  0.00000000000111,  0.00000000000000 ]
    - # atom 5
      - [ -0.26198647805106,  0.00000000000000 ]
      - [ -0.00000000000195,  0.00000000000000 ]
      - [  0.00000000000111,  0.00000000000000 ]
  - # 6
    frequency:    5.3085993064
    eigenvector:
    - # atom 1
      - [ -0.00000000000000,  0.00000000000000 ]
      - [  0.00000000000001,  0.00000000000000 ]
      - [  0.63933039796613,  0.00000000000000 ]
    - # atom 2
      - [  0.00000000000000,  0.00000000000000 ]
      - [ -0.00000000000001,  0.00000000000000 ]
      - [ -0.49195856144598,  0.00000000000000 ]
    - # atom 3
      - [  0.00000000000000,  0.00000000000000 ]
      - [ -0.00000000000001,  0.00000000000000 ]
      - [ -0.33608419314274,  0.00000000000000 ]
    - # atom 4
      - [  0.00000000000000,  0.00000000000000 ]
      - [ -0.00000000000001,  0.00000000000000 ]
      - [ -0.34356794480046,  0.00000000000000 ]
    - # atom 5
      - [  0.00000000000000,  0.00000000000000 ]
      - [ -0.00000000000001,  0.00000000000000 ]
      - [ -0.34386319733529,  0.00000000000000 ]
  - # 7
    frequency:    5.4203307340
    eigenvector:
    - # atom 1
      - [  0.00000000000227,  0.00000000000000 ]
      - [  0.64107255815086,  0.00000000000000 ]
      - [ -0.00000000000001,  0.00000000000000 ]
    - # atom 2
      - [ -0.00000000000193,  0.00000000000000 ]
      - [ -0.54378367140536,  0.00000000000000 ]
      - [  0.00000000000001,  0.00000000000000 ]
    - # atom 3
      - [ -0.00000000000106,  0.00000000000000 ]
      - [ -0.30062651991062,  0.00000000000000 ]
      - [  0.00000000000001,  0.00000000000000 ]
    - # atom 4
      - [ -0.00000000000109,  0.00000000000000 ]
      - [ -0.32893696120519,  0.00000000000000 ]
      - [  0.00000000000001,  0.00000000000000 ]
    - # atom 5
      - [ -0.00000000000117,  0.00000000000000 ]
      - [ -0.30781401036722,  0.00000000000000 ]
      - [  0.00000000000001,  0.00000000000000 ]
  - # 8
    frequency:    5.4203981120
    eigenvector:
    - # atom 1
      - [  0.64105426879664,  0.00000000000000 ]
      - [ -0.00000000000227,  0.00000000000000 ]
      - [  0.00000000000000,  0.00000000000000 ]
    - # atom 2
      - [ -0.54367905128791,  0.00000000000000 ]
      - [  0.00000000000193,  0.00000000000000 ]
      - [ -0.00000000000000,  0.00000000000000 ]
    - # atom 3
      - [ -0.30052961804036,  0.00000000000000 ]
      - [  0.00000000000107,  0.00000000000000 ]
      - [ -0.00000000000000,  0.00000000000000 ]
    - # atom 4
      - [ -0.30793086914368,  0.00000000000000 ]
      - [  0.00000000000117,  0.00000000000000 ]
      - [ -0.00000000000000,  0.00000000000000 ]
    - # atom 5
      - [ -0.32912466051211,  0.00000000000000 ]
      - [  0.00000000000109,  0.00000000000000 ]
      - [ -0.00000000000000,  0.00000000000000 ]
  - # 9
    frequency:    8.7078357848
    eigenvector:
    - # atom 1
      - [ -0.00000000000000,  0.00000000000000 ]
      - [  0.00000000000000,  0.00000000000000 ]
      - [  0.04465330212009,  0.00000000000000 ]
    - # atom 2
      - [ -0.00000000000000,  0.00000000000000 ]
      - [  0.00000000000000,  0.00000000000000 ]
      - [ -0.74060363001266,  0.00000000000000 ]
    - # atom 3
      - [ -0.00000000000000,  0.00000000000000 ]
      - [ -0.00000000000000,  0.00000000000000 ]
      - [  0.30687963687786,  0.00000000000000 ]
    - # atom 4
      - [ -0.00000000000000,  0.00000000000000 ]
      - [  0.00000000000000,  0.00000000000000 ]
      - [  0.42068904693609,  0.00000000000000 ]
    - # atom 5
      - [  0.00000000000000,  0.00000000000000 ]
      - [  0.00000000000000,  0.00000000000000 ]
      - [  0.42232447250848,  0.00000000000000 ]
  - # 10
    frequency:    8.8340592625
    eigenvector:
    - # atom 1
      - [ -0.01294456812549,  0.00000000000000 ]
      - [  0.00000000000000,  0.00000000000000 ]
      - [  0.00000000000000,  0.00000000000000 ]
    - # atom 2
      - [ -0.01705419799768,  0.00000000000000 ]
      - [ -0.00000000000000,  0.00000000000000 ]
      - [ -0.00000000000000,  0.00000000000000 ]
    - # atom 3
      - [  0.73445321390542,  0.00000000000000 ]
      - [  0.00000000000002,  0.00000000000000 ]
      - [  0.00000000000000,  0.00000000000000 ]
    - # atom 4
      - [  0.01127011262727,  0.00000000000000 ]
      - [ -0.00000000000001,  0.00000000000000 ]
      - [ -0.00000000000000,  0.00000000000000 ]
    - # atom 5
      - [ -0.67822787736281,  0.00000000000000 ]
      - [  0.00000000000000,  0.00000000000000 ]
      - [  0.00000000000000,  0.00000000000000 ]
  - # 11
    frequency:    8.8342577359
    eigenvector:
    - # atom 1
      - [  0.00000000000000,  0.00000000000000 ]
      - [ -0.01287557668472,  0.00000000000000 ]
      - [  0.00000000000000,  0.00000000000000 ]
    - # atom 2
      - [  0.00000000000000,  0.00000000000000 ]
      - [ -0.01707750201814,  0.00000000000000 ]
      - [ -0.00000000000000,  0.00000000000000 ]
    - # atom 3
      - [ -0.00000000000002,  0.00000000000000 ]
      - [  0.73426880082343,  0.00000000000000 ]
      - [  0.00000000000000,  0.00000000000000 ]
    - # atom 4
      - [ -0.00000000000000,  0.00000000000000 ]
      - [ -0.67842916875684,  0.00000000000000 ]
      - [ -0.00000000000001,  0.00000000000000 ]
    - # atom 5
      - [  0.00000000000001,  0.00000000000000 ]
      - [  0.01121470316487,  0.00000000000000 ]
      - [  0.00000000000001,  0.00000000000000 ]
  - # 12
    frequency:    8.8609358474
    eigenvector:
    - # atom 1
      - [  0.00000000000000,  0.00000000000000 ]
      - [ -0.00000000000000,  0.00000000000000 ]
      - [ -0.00001938199938,  0.00000000000000 ]
    - # atom 2
      - [  0.00000000000000,  0.00000000000000 ]
      - [ -0.00000000000000,  0.00000000000000 ]
      - [ -0.00070938067554,  0.00000000000000 ]
    - # atom 3
      - [  0.00000000000000,  0.00000000000000 ]
      - [  0.00000000000001,  0.00000000000000 ]
      - [  0.00035038359006,  0.00000000000000 ]
    - # atom 4
      - [  0.00000000000000,  0.00000000000000 ]
      - [ -0.00000000000001,  0.00000000000000 ]
      - [  0.70772832796766,  0.00000000000000 ]
    - # atom 5
      - [ -0.00000000000000,  0.00000000000000 ]
      - [  0.00000000000000,  0.00000000000000 ]
      - [ -0.70648424428775,  0.00000000000000 ]
  - # 13
    frequency:   14.0837937994
    eigenvector:
    - # atom 1
      - [  0.00354926225741,  0.00000000000000 ]
      - [  0.00000000000000,  0.00000000000000 ]
      - [ -0.00000000000000,  0.00000000000000 ]
    - # atom 2
      - [ -0.14915392100726,  0.00000000000000 ]
      - [ -0.00000000000000,  0.00000000000000 ]
      - [  0.00000000000000,  0.00000000000000 ]
    - # atom 3
      - [  0.46667880178197,  0.00000000000000 ]
      - [ -0.00000000000000,  0.00000000000000 ]
      - [ -0.00000000000000,  0.00000000000000 ]
    - # atom 4
      - [ -0.71609582876893,  0.00000000000000 ]
      - [ -0.00000000000000,  0.00000000000000 ]
      - [  0.00000000000000,  0.00000000000000 ]
    - # atom 5
      - [  0.49715004834826,  0.00000000000000 ]
      - [  0.00000000000000,  0.00000000000000 ]
      - [  0.00000000000000,  0.00000000000000 ]
  - # 14
    frequency:   14.0846125999
    eigenvector:
    - # atom 1
      - [ -0.00000000000000,  0.00000000000000 ]
      - [ -0.00353243413847,  0.00000000000000 ]
      - [ -0.00000000000000,  0.00000000000000 ]
    - # atom 2
      - [  0.00000000000000,  0.00000000000000 ]
      - [  0.14919251114695,  0.00000000000000 ]
      - [  0.00000000000000,  0.00000000000000 ]
    - # atom 3
      - [ -0.00000000000000,  0.00000000000000 ]
      - [ -0.46677190702067,  0.00000000000000 ]
      - [ -0.00000000000000,  0.00000000000000 ]
    - # atom 4
      - [ -0.00000000000000,  0.00000000000000 ]
      - [ -0.49704160822894,  0.00000000000000 ]
      - [  0.00000000000000,  0.00000000000000 ]
    - # atom 5
      - [ -0.00000000000000,  0.00000000000000 ]
      - [  0.71610246685247,  0.00000000000000 ]
      - [  0.00000000000000,  0.00000000000000 ]
  - # 15
    frequency:   15.4065140548
    eigenvector:
    - # atom 1
      - [ -0.00000000000000, -0.00000000000000 ]
      - [  0.00000000000000,  0.00000000000000 ]
      - [  0.00024527048657,  0.00000000000000 ]
    - # atom 2
      - [ -0.00000000000000,  0.00000000000000 ]
      - [  0.00000000000000,  0.00000000000000 ]
      - [ -0.06651439353633,  0.00000000000000 ]
    - # atom 3
      - [  0.00000000000000,  0.00000000000000 ]
      - [ -0.00000000000000,  0.00000000000000 ]
      - [  0.85108143978673,  0.00000000000000 ]
    - # atom 4
      - [ -0.00000000000000,  0.00000000000000 ]
      - [ -0.00000000000000,  0.00000000000000 ]
      - [ -0.36818385335082,  0.00000000000000 ]
    - # atom 5
      - [  0.00000000000000,  0.00000000000000 ]
      - [  0.00000000000000,  0.00000000000000 ]
      - [ -0.36834332935071,  0.00000000000000 ]

- q-position: [    0.0200000,    0.0000000,    0.0000000 ]
  distance:    0.0050176
  band:
  - # 1
    frequency:   -4.2935556558
    eigenvector:
    - # atom 1
      - [ -0.00000000000000,  0.00000000000000 ]
      - [ -0.00209789762527,  0.00000000000000 ]
      - [ -0.00000000000000,  0.00000000000000 ]
    - # atom 2
      - [ -0.00000000000005,  0.00000000000000 ]
      - [ -0.69103204985367,  0.00000000000000 ]
      - [ -0.00000000000000,  0.00000000000000 ]
    - # atom 3
      - [  0.00000000000002,  0.00000000000000 ]
      - [  0.28961444285424,  0.00000000000000 ]
      - [ -0.00000000000000,  0.00000000000000 ]
    - # atom 4
      - [  0.00000000000004,  0.00000000000000 ]
      - [  0.33969828743685,  0.00000000000000 ]
      - [ -0.00000000000000,  0.00000000000000 ]
    - # atom 5
      - [  0.00000000000002,  0.00000000000000 ]
      - [  0.56850580727314,  0.00000000000000 ]
      - [  0.00000000000000,  0.00000000000000 ]
  - # 2
    frequency:   -4.2817054912
    eigenvector:
    - # atom 1
      - [ -0.00266251891255,  0.00000000000000 ]
      - [  0.00000000000000,  0.00000000000000 ]
      - [  0.00000000000000,  0.00000000000000 ]
    - # atom 2
      - [ -0.69201217618454,  0.00000000000000 ]
      - [  0.00000000000005,  0.00000000000000 ]
      - [ -0.00000000000000,  0.00000000000000 ]
    - # atom 3
      - [  0.28867552178199,  0.00000000000000 ]
      - [ -0.00000000000002,  0.00000000000000 ]
      - [ -0.00000000000000,  0.00000000000000 ]
    - # atom 4
      - [  0.56789661647052,  0.00000000000000 ]
      - [ -0.00000000000002,  0.00000000000000 ]
      - [ -0.00000000000000,  0.00000000000000 ]
    - # atom 5
      - [  0.33951720888726,  0.00000000000000 ]
      - [ -0.00000000000004,  0.00000000000000 ]
      - [ -0.00000000000000,  0.00000000000000 ]
  - # 3
    frequency:    0.2078510309
    eigenvector:
    - # atom 1
      - [ -0.00000000000078,  0.00000000000000 ]