   5    5
1 1
     6.796748556590000    -0.000000000000000    -0.000000000000000
    -0.000000000000000     6.796748556590000    -0.000000000000000
    -0.000000000000000    -0.000000000000000     6.560953977780001
1 2
    -3.433949386213311     0.000000000000000    -0.000000000000000
    -0.000000000000000    -3.433949386213311    -0.000000000000000
    -0.000000000000000    -0.000000000000000    -3.774175579291947
1 3
    -1.163232661858508    -0.000000000000000     0.000000000000000
     0.000000000000000    -1.163232661858508     0.000000000000000
    -0.000000000000000    -0.000000000000000    -0.952611773454434
1 4
    -1.207240918873020     0.000000000000000    -0.000000000000000
    -0.000000000000000    -0.988305875335895    -0.000000000000000
    -0.000000000000000    -0.000000000000000    -0.917916101433343
1 5
    -0.988305875335895     0.000000000000000    -0.000000000000000
    -0.000000000000000    -1.207240918873020    -0.000000000000000
     0.000000000000000    -0.000000000000000    -0.917916101433343
2 1
    -3.433949386213311    -0.000000000000000    -0.000000000000000
     0.000000000000000    -3.433949386213311    -0.000000000000000
    -0.000000000000000    -0.000000000000000    -3.774175579291947
2 2
     0.848087906400000    -0.000000000000000    -0.000000000000000
    -0.000000000000000     0.848087906400000    -0.000000000000000
    -0.000000000000000    -0.000000000000000     9.687618813600000
2 3
    -0.712769938903128    -0.000000000000000    -0.000000000000000
     0.000000000000000    -0.712769938903128     0.000000000000000
     0.000000000000000    -0.000000000000000    -2.945112949631430
2 4
     3.776446950318350     0.000000000000000    -0.000000000000000
     0.000000000000000    -0.476905599674918    -0.000000000000000
    -0.000000000000000    -0.000000000000000    -1.482576241979467
2 5
    -0.476905599674918    -0.000000000000000    -0.000000000000000
    -0.000000000000000     3.776446950318350    -0.000000000000000
    -0.000000000000000    -0.000000000000000    -1.482576241979467
3 1
    -1.163232661858508     0.000000000000000    -0.000000000000000
    -0.000000000000000    -1.163232661858508    -0.000000000000000
     0.000000000000000     0.000000000000000    -0.952611773454434
3 2
    -0.712769938903128     0.000000000000000     0.000000000000000
    -0.000000000000000    -0.712769938903128    -0.000000000000000
    -0.000000000000000     0.000000000000000    -2.945112949631430
3 3
     5.656327040000000    -0.000000000000000    -0.000000000000000
    -0.000000000000000     5.656327040000000    -0.000000000000000
    -0.000000000000000    -0.000000000000000    11.931106880000000
3 4
    -4.320110400000000     0.000000000000000    -0.000000000000000
    -0.000000000000000     0.539051040000000    -0.000000000000000
    -0.000000000000000     0.000000000000000    -4.015873120000000
3 5
     0.539051040000000     0.000000000000000    -0.000000000000000
    -0.000000000000000    -4.320110400000000    -0.000000000000000
    -0.000000000000000    -0.000000000000000    -4.015873120000000
4 1
    -1.207240918873020    -0.000000000000000    -0.000000000000000
     0.000000000000000    -0.988305875335895    -0.000000000000000
    -0.000000000000000    -0.000000000000000    -0.917916101433343
4 2
     3.776446950318350     0.000000000000000    -0.000000000000000
     0.000000000000000    -0.476905599674918    -0.000000000000000
    -0.000000000000000    -0.000000000000000    -1.482576241979467
4 3
    -4.320110400000000    -0.000000000000000    -0.000000000000000
     0.000000000000000     0.539051040000000     0.000000000000000
    -0.000000000000000    -0.000000000000000    -4.015873120000000
4 4
     6.450962720000000    -0.000000000000000    -0.000000000000000
    -0.000000000000000     5.627842720000000    -0.000000000000000
    -0.000000000000000    -0.000000000000000     5.777228480000000
4 5
    -4.702967680000000    -0.000000000000000    -0.000000000000000
    -0.000000000000000    -4.702967680000000    -0.000000000000000
    -0.000000000000000    -0.000000000000000     0.637563360000000
5 1
    -0.988305875335895    -0.000000000000000     0.000000000000000
     0.000000000000000    -1.207240918873020    -0.000000000000000
    -0.000000000000000    -0.000000000000000    -0.917916101433343
5 2
    -0.476905599674918    -0.000000000000000    -0.000000000000000
    -0.000000000000000     3.776446950318350    -0.000000000000000
    -0.000000000000000    -0.000000000000000    -1.482576241979467
5 3
     0.539051040000000    -0.000000000000000    -0.000000000000000
     0.000000000000000    -4.320110400000000    -0.000000000000000
    -0.000000000000000    -0.000000000000000    -4.015873120000000
5 4
    -4.702967680000000    -0.000000000000000    -0.000000000000000
    -0.000000000000000    -4.702967680000000    -0.000000000000000
    -0.000000000000000    -0.000000000000000     0.637563360000000
5 5
     5.627842720000000    -0.000000000000000    -0.000000000000000
    -0.000000000000000     6.450962720000000    -0.000000000000000
    -0.000000000000000    -0.000000000000000     5.777228480000000