phonopy:
  version: 2.15.1
  frequency_unit_conversion_factor: 15.633302
  symmetry_tolerance: 1.00000e-05
  configuration:
    band: "0.0 0.0 0.0  0.5 0.0 0.0  0.5 0.5 0.0  0.0 0.0 0.0  0.5 0.5 0.5"
    force_constants: "READ"
    eigenvectors: ".TRUE."
    cell_filename: "POSCAR"
    dim: "1 1 1"

physical_unit:
  atomic_mass: "AMU"
  length: "angstrom"
  force_constants: "eV/angstrom^2"

space_group:
  type: "P4mm"
  number: 99
  Hall_symbol: "P 4 -2"

supercell_matrix:
- [   1,   0,   0 ]
- [   0,   1,   0 ]
- [   0,   0,   1 ]

primitive_cell:
  lattice:
  - [     3.986000000000000,     0.000000000000000,     0.000000000000000 ] # a
  - [     0.000000000000000,     3.986000000000000,     0.000000000000000 ] # b
  - [     0.000000000000000,     0.000000000000000,     4.029846000000000 ] # c
  points:
  - symbol: Ba # 1
    coordinates: [  0.000000000000000,  0.000000000000000,  0.990324818605875 ]
    mass: 137.327000
  - symbol: Ti # 2
    coordinates: [  0.500000000000000,  0.500000000000000,  0.475197039447481 ]
    mass: 47.867000
  - symbol: O  # 3
    coordinates: [  0.500000000000000,  0.500000000000000,  0.014339983555961 ]
    mass: 15.999400
  - symbol: O  # 4
    coordinates: [  0.000000000000000,  0.500000000000000,  0.505069079195342 ]
    mass: 15.999400
  - symbol: O  # 5
    coordinates: [  0.500000000000000,  0.000000000000000,  0.505069079195342 ]
    mass: 15.999400
  reciprocal_lattice: # without 2pi
  - [     0.250878073256397,     0.000000000000000,     0.000000000000000 ] # a*
  - [     0.000000000000000,     0.250878073256397,     0.000000000000000 ] # b*
  - [     0.000000000000000,     0.000000000000000,     0.248148440411867 ] # c*

unit_cell:
  lattice:
  - [     3.986000000000000,     0.000000000000000,     0.000000000000000 ] # a
  - [     0.000000000000000,     3.986000000000000,     0.000000000000000 ] # b
  - [     0.000000000000000,     0.000000000000000,     4.029846000000000 ] # c
  points:
  - symbol: Ba # 1
    coordinates: [ -0.000000000000000,  0.000000000000000, -0.009675181394125 ]
    mass: 137.327000
    reduced_to: 1
  - symbol: Ti # 2
    coordinates: [  0.500000000000000,  0.500000000000000,  0.475197039447481 ]
    mass: 47.867000
    reduced_to: 2
  - symbol: O  # 3
    coordinates: [  0.500000000000000,  0.500000000000000,  0.014339983555961 ]
    mass: 15.999400
    reduced_to: 3
  - symbol: O  # 4
    coordinates: [ -0.000000000000000,  0.500000000000000,  0.505069079195342 ]
    mass: 15.999400
    reduced_to: 4
  - symbol: O  # 5
    coordinates: [  0.500000000000000,  0.000000000000000,  0.505069079195342 ]
    mass: 15.999400
    reduced_to: 5

supercell:
  lattice:
  - [     3.986000000000000,     0.000000000000000,     0.000000000000000 ] # a
  - [     0.000000000000000,     3.986000000000000,     0.000000000000000 ] # b
  - [     0.000000000000000,     0.000000000000000,     4.029846000000000 ] # c
  points:
  - symbol: Ba # 1
    coordinates: [  0.000000000000000,  0.000000000000000,  0.990324818605875 ]
    mass: 137.327000
    reduced_to: 1
  - symbol: Ti # 2
    coordinates: [  0.500000000000000,  0.500000000000000,  0.475197039447481 ]
    mass: 47.867000
    reduced_to: 2
  - symbol: O  # 3
    coordinates: [  0.500000000000000,  0.500000000000000,  0.014339983555961 ]
    mass: 15.999400
    reduced_to: 3
  - symbol: O  # 4
    coordinates: [  0.000000000000000,  0.500000000000000,  0.505069079195342 ]
    mass: 15.999400
    reduced_to: 4
  - symbol: O  # 5
    coordinates: [  0.500000000000000,  0.000000000000000,  0.505069079195342 ]
    mass: 15.999400
    reduced_to: 5
