phonopy:
  version: 2.15.1
  frequency_unit_conversion_factor: 15.633302
  symmetry_tolerance: 1.00000e-05
  configuration:
    create_displacements: ".true."
    dim: "2 2 2"

physical_unit:
  atomic_mass: "AMU"
  length: "angstrom"
  force_constants: "eV/angstrom^2"

space_group:
  type: "P4mm"
  number: 99
  Hall_symbol: "P 4 -2"

supercell_matrix:
- [   2,   0,   0 ]
- [   0,   2,   0 ]
- [   0,   0,   2 ]

primitive_cell:
  lattice:
  - [     3.986000000000000,     0.000000000000000,     0.000000000000000 ] # a
  - [     0.000000000000000,     3.986000000000000,     0.000000000000000 ] # b
  - [     0.000000000000000,     0.000000000000000,     4.029846000000000 ] # c
  points:
  - symbol: Ba # 1
    coordinates: [  0.000000000000000,  0.000000000000000,  0.990324818605875 ]
    mass: 137.327000
  - symbol: Ti # 2
    coordinates: [  0.500000000000000,  0.500000000000000,  0.475197039447481 ]
    mass: 47.867000
  - symbol: O  # 3
    coordinates: [  0.500000000000000,  0.500000000000000,  0.014339983555961 ]
    mass: 15.999400
  - symbol: O  # 4
    coordinates: [  0.000000000000000,  0.500000000000000,  0.505069079195342 ]
    mass: 15.999400
  - symbol: O  # 5
    coordinates: [  0.500000000000000,  0.000000000000000,  0.505069079195342 ]
    mass: 15.999400
  reciprocal_lattice: # without 2pi
  - [     0.250878073256397,     0.000000000000000,     0.000000000000000 ] # a*
  - [     0.000000000000000,     0.250878073256397,     0.000000000000000 ] # b*
  - [     0.000000000000000,     0.000000000000000,     0.248148440411867 ] # c*

unit_cell:
  lattice:
  - [     3.986000000000000,     0.000000000000000,     0.000000000000000 ] # a
  - [     0.000000000000000,     3.986000000000000,     0.000000000000000 ] # b
  - [     0.000000000000000,     0.000000000000000,     4.029846000000000 ] # c
  points:
  - symbol: Ba # 1
    coordinates: [ -0.000000000000000,  0.000000000000000, -0.009675181394125 ]
    mass: 137.327000
    reduced_to: 1
  - symbol: Ti # 2
    coordinates: [  0.500000000000000,  0.500000000000000,  0.475197039447481 ]
    mass: 47.867000
    reduced_to: 2
  - symbol: O  # 3
    coordinates: [  0.500000000000000,  0.500000000000000,  0.014339983555961 ]
    mass: 15.999400
    reduced_to: 3
  - symbol: O  # 4
    coordinates: [ -0.000000000000000,  0.500000000000000,  0.505069079195342 ]
    mass: 15.999400
    reduced_to: 4
  - symbol: O  # 5
    coordinates: [  0.500000000000000,  0.000000000000000,  0.505069079195342 ]
    mass: 15.999400
    reduced_to: 5

supercell:
  lattice:
  - [     7.972000000000000,     0.000000000000000,     0.000000000000000 ] # a
  - [     0.000000000000000,     7.972000000000000,     0.000000000000000 ] # b
  - [     0.000000000000000,     0.000000000000000,     8.059692000000000 ] # c
  points:
  - symbol: Ba # 1
    coordinates: [  0.000000000000000,  0.000000000000000,  0.995162409302938 ]
    mass: 137.327000
    reduced_to: 1
  - symbol: Ba # 2
    coordinates: [  0.500000000000000,  0.000000000000000,  0.995162409302938 ]
    mass: 137.327000
    reduced_to: 1
  - symbol: Ba # 3
    coordinates: [  0.000000000000000,  0.500000000000000,  0.995162409302938 ]
    mass: 137.327000
    reduced_to: 1
  - symbol: Ba # 4
    coordinates: [  0.500000000000000,  0.500000000000000,  0.995162409302938 ]
    mass: 137.327000
    reduced_to: 1
  - symbol: Ba # 5
    coordinates: [  0.000000000000000,  0.000000000000000,  0.495162409302938 ]
    mass: 137.327000
    reduced_to: 1
  - symbol: Ba # 6
    coordinates: [  0.500000000000000,  0.000000000000000,  0.495162409302938 ]
    mass: 137.327000
    reduced_to: 1
  - symbol: Ba # 7
    coordinates: [  0.000000000000000,  0.500000000000000,  0.495162409302938 ]
    mass: 137.327000
    reduced_to: 1
  - symbol: Ba # 8
    coordinates: [  0.500000000000000,  0.500000000000000,  0.495162409302938 ]
    mass: 137.327000
    reduced_to: 1
  - symbol: Ti # 9
    coordinates: [  0.250000000000000,  0.250000000000000,  0.237598519723741 ]
    mass: 47.867000
    reduced_to: 9
  - symbol: Ti # 10
    coordinates: [  0.750000000000000,  0.250000000000000,  0.237598519723741 ]
    mass: 47.867000
    reduced_to: 9
  - symbol: Ti # 11
    coordinates: [  0.250000000000000,  0.750000000000000,  0.237598519723741 ]
    mass: 47.867000
    reduced_to: 9
  - symbol: Ti # 12
    coordinates: [  0.750000000000000,  0.750000000000000,  0.237598519723741 ]
    mass: 47.867000
    reduced_to: 9
  - symbol: Ti # 13
    coordinates: [  0.250000000000000,  0.250000000000000,  0.737598519723741 ]
    mass: 47.867000
    reduced_to: 9
  - symbol: Ti # 14
    coordinates: [  0.750000000000000,  0.250000000000000,  0.737598519723741 ]
    mass: 47.867000
    reduced_to: 9
  - symbol: Ti # 15
    coordinates: [  0.250000000000000,  0.750000000000000,  0.737598519723741 ]
    mass: 47.867000
    reduced_to: 9
  - symbol: Ti # 16
    coordinates: [  0.750000000000000,  0.750000000000000,  0.737598519723741 ]
    mass: 47.867000
    reduced_to: 9
  - symbol: O  # 17
    coordinates: [  0.250000000000000,  0.250000000000000,  0.007169991777980 ]
    mass: 15.999400
    reduced_to: 17
  - symbol: O  # 18
    coordinates: [  0.750000000000000,  0.250000000000000,  0.007169991777980 ]
    mass: 15.999400
    reduced_to: 17
  - symbol: O  # 19
    coordinates: [  0.250000000000000,  0.750000000000000,  0.007169991777980 ]
    mass: 15.999400
    reduced_to: 17
  - symbol: O  # 20
    coordinates: [  0.750000000000000,  0.750000000000000,  0.007169991777980 ]
    mass: 15.999400
    reduced_to: 17
  - symbol: O  # 21
    coordinates: [  0.250000000000000,  0.250000000000000,  0.507169991777980 ]
    mass: 15.999400
    reduced_to: 17
  - symbol: O  # 22
    coordinates: [  0.750000000000000,  0.250000000000000,  0.507169991777980 ]
    mass: 15.999400
    reduced_to: 17
  - symbol: O  # 23
    coordinates: [  0.250000000000000,  0.750000000000000,  0.507169991777980 ]
    mass: 15.999400
    reduced_to: 17
  - symbol: O  # 24
    coordinates: [  0.750000000000000,  0.750000000000000,  0.507169991777980 ]
    mass: 15.999400
    reduced_to: 17
  - symbol: O  # 25
    coordinates: [  0.000000000000000,  0.250000000000000,  0.252534539597671 ]
    mass: 15.999400
    reduced_to: 25
  - symbol: O  # 26
    coordinates: [  0.500000000000000,  0.250000000000000,  0.252534539597671 ]
    mass: 15.999400
    reduced_to: 25
  - symbol: O  # 27
    coordinates: [  0.000000000000000,  0.750000000000000,  0.252534539597671 ]
    mass: 15.999400
    reduced_to: 25
  - symbol: O  # 28
    coordinates: [  0.500000000000000,  0.750000000000000,  0.252534539597671 ]
    mass: 15.999400
    reduced_to: 25
  - symbol: O  # 29
    coordinates: [  0.000000000000000,  0.250000000000000,  0.752534539597671 ]
    mass: 15.999400
    reduced_to: 25
  - symbol: O  # 30
    coordinates: [  0.500000000000000,  0.250000000000000,  0.752534539597671 ]
    mass: 15.999400
    reduced_to: 25
  - symbol: O  # 31
    coordinates: [  0.000000000000000,  0.750000000000000,  0.752534539597671 ]
    mass: 15.999400
    reduced_to: 25
  - symbol: O  # 32
    coordinates: [  0.500000000000000,  0.750000000000000,  0.752534539597671 ]
    mass: 15.999400
    reduced_to: 25
  - symbol: O  # 33
    coordinates: [  0.250000000000000,  0.000000000000000,  0.252534539597671 ]
    mass: 15.999400
    reduced_to: 33
  - symbol: O  # 34
    coordinates: [  0.750000000000000,  0.000000000000000,  0.252534539597671 ]
    mass: 15.999400
    reduced_to: 33
  - symbol: O  # 35
    coordinates: [  0.250000000000000,  0.500000000000000,  0.252534539597671 ]
    mass: 15.999400
    reduced_to: 33
  - symbol: O  # 36
    coordinates: [  0.750000000000000,  0.500000000000000,  0.252534539597671 ]
    mass: 15.999400
    reduced_to: 33
  - symbol: O  # 37
    coordinates: [  0.250000000000000,  0.000000000000000,  0.752534539597671 ]
    mass: 15.999400
    reduced_to: 33
  - symbol: O  # 38
    coordinates: [  0.750000000000000,  0.000000000000000,  0.752534539597671 ]
    mass: 15.999400
    reduced_to: 33
  - symbol: O  # 39
    coordinates: [  0.250000000000000,  0.500000000000000,  0.752534539597671 ]
    mass: 15.999400
    reduced_to: 33
  - symbol: O  # 40
    coordinates: [  0.750000000000000,  0.500000000000000,  0.752534539597671 ]
    mass: 15.999400
    reduced_to: 33

displacements:
- atom:    1
  displacement:
    [   0.0070322844665862,  0.0000000000000000,  0.0071096395957186 ]
- atom:    1
  displacement:
    [  -0.0070322844665862,  0.0000000000000000, -0.0071096395957186 ]
- atom:    9
  displacement:
    [   0.0070322844665862,  0.0000000000000000,  0.0071096395957186 ]
- atom:    9
  displacement:
    [  -0.0070322844665862,  0.0000000000000000, -0.0071096395957186 ]
- atom:   17
  displacement:
    [   0.0070322844665862,  0.0000000000000000,  0.0071096395957186 ]
- atom:   17
  displacement:
    [  -0.0070322844665862,  0.0000000000000000, -0.0071096395957186 ]
- atom:   25
  displacement:
    [   0.0057523337476039,  0.0057523337476039,  0.0058156094188275 ]
- atom:   25
  displacement:
    [  -0.0057523337476039, -0.0057523337476039, -0.0058156094188275 ]
