<?xml version="1.0" encoding="ISO-8859-1"?>
<modeling>
 <generator>
  <i name="program" type="string">vasp </i>
  <i name="version" type="string">5.4.4.18Apr17-6-g9f103f2a35  </i>
  <i name="subversion" type="string">(build Feb  5 2019 14:40:51) complex            parallel </i>
  <i name="platform" type="string">Arkuda_Intel2017 </i>
  <i name="date" type="string">2023 02 07 </i>
  <i name="time" type="string">11:40:54 </i>
 </generator>
 <incar>
  <i type="string" name="PREC">accurate</i>
  <i type="int" name="IALGO">    38</i>
  <i type="logical" name="ADDGRID"> T  </i>
  <i type="int" name="IBRION">     8</i>
  <i name="EDIFF">      0.00000001</i>
  <i name="ENCUT">    500.00000000</i>
  <i type="logical" name="LREAL"> F  </i>
  <i type="int" name="ISMEAR">     0</i>
  <i name="SIGMA">      0.10000000</i>
  <i type="logical" name="LWAVE"> F  </i>
  <i type="logical" name="LCHARG"> F  </i>
  <v type="int" name="KPOINT_BSE">    -1     0     0     0</v>
 </incar>
 <structure name="primitive_cell" >
  <crystal>
   <varray name="basis" >
    <v>       3.98600000       0.00000000       0.00000000 </v>
    <v>       0.00000000       3.98600000       0.00000000 </v>
    <v>       0.00000000       0.00000000       4.02984600 </v>
   </varray>
   <i name="volume">     64.02698310 </i>
   <varray name="rec_basis" >
    <v>       0.25087807       0.00000000       0.00000000 </v>
    <v>       0.00000000       0.25087807       0.00000000 </v>
    <v>       0.00000000       0.00000000       0.24814844 </v>
   </varray>
  </crystal>
  <varray name="positions" >
   <v>       0.00000000       0.00000000      -0.00967518 </v>
   <v>       0.00000000      -0.50000000      -0.49493092 </v>
   <v>      -0.50000000       0.00000000      -0.49493092 </v>
   <v>      -0.50000000      -0.50000000       0.01433998 </v>
   <v>      -0.50000000      -0.50000000       0.47519704 </v>
  </varray>
 </structure>
 <varray name="primitive_index" >
  <v type="int" >        1 </v>
  <v type="int" >        4 </v>
  <v type="int" >        5 </v>
  <v type="int" >        3 </v>
  <v type="int" >        2 </v>
 </varray>
 <kpoints>
  <generation param="Gamma">
   <v type="int" name="divisions">       8        8        8 </v>
   <v name="usershift">      0.00000000       0.00000000       0.00000000 </v>
   <v name="genvec1">      0.12500000       0.00000000       0.00000000 </v>
   <v name="genvec2">      0.00000000       0.12500000       0.00000000 </v>
   <v name="genvec3">      0.00000000       0.00000000       0.12500000 </v>
   <v name="shift">      0.00000000       0.00000000       0.00000000 </v>
  </generation>
  <varray name="kpointlist" >
   <v>       0.00000000       0.00000000       0.00000000 </v>
   <v>       0.12500000       0.00000000       0.00000000 </v>
   <v>       0.25000000       0.00000000       0.00000000 </v>
   <v>       0.37500000       0.00000000       0.00000000 </v>
   <v>       0.50000000       0.00000000       0.00000000 </v>
   <v>       0.12500000       0.12500000       0.00000000 </v>
   <v>       0.25000000       0.12500000       0.00000000 </v>
   <v>       0.37500000       0.12500000       0.00000000 </v>
   <v>       0.50000000       0.12500000       0.00000000 </v>
   <v>       0.25000000       0.25000000       0.00000000 </v>
   <v>       0.37500000       0.25000000       0.00000000 </v>
   <v>       0.50000000       0.25000000       0.00000000 </v>
   <v>       0.37500000       0.37500000       0.00000000 </v>
   <v>       0.50000000       0.37500000       0.00000000 </v>
   <v>       0.50000000       0.50000000       0.00000000 </v>
   <v>       0.00000000       0.00000000       0.12500000 </v>
   <v>       0.12500000       0.00000000       0.12500000 </v>
   <v>       0.25000000       0.00000000       0.12500000 </v>
   <v>       0.37500000       0.00000000       0.12500000 </v>
   <v>       0.50000000       0.00000000       0.12500000 </v>
   <v>       0.12500000       0.12500000       0.12500000 </v>
   <v>       0.25000000       0.12500000       0.12500000 </v>
   <v>       0.37500000       0.12500000       0.12500000 </v>
   <v>       0.50000000       0.12500000       0.12500000 </v>
   <v>       0.25000000       0.25000000       0.12500000 </v>
   <v>       0.37500000       0.25000000       0.12500000 </v>
   <v>       0.50000000       0.25000000       0.12500000 </v>
   <v>       0.37500000       0.37500000       0.12500000 </v>
   <v>       0.50000000       0.37500000       0.12500000 </v>
   <v>       0.50000000       0.50000000       0.12500000 </v>
   <v>       0.00000000       0.00000000       0.25000000 </v>
   <v>       0.12500000       0.00000000       0.25000000 </v>
   <v>       0.25000000       0.00000000       0.25000000 </v>
   <v>       0.37500000       0.00000000       0.25000000 </v>
   <v>       0.50000000       0.00000000       0.25000000 </v>
   <v>       0.12500000       0.12500000       0.25000000 </v>
   <v>       0.25000000       0.12500000       0.25000000 </v>
   <v>       0.37500000       0.12500000       0.25000000 </v>
   <v>       0.50000000       0.12500000       0.25000000 </v>
   <v>       0.25000000       0.25000000       0.25000000 </v>
   <v>       0.37500000       0.25000000       0.25000000 </v>
   <v>       0.50000000       0.25000000       0.25000000 </v>
   <v>       0.37500000       0.37500000       0.25000000 </v>
   <v>       0.50000000       0.37500000       0.25000000 </v>
   <v>       0.50000000       0.50000000       0.25000000 </v>
   <v>       0.00000000       0.00000000       0.37500000 </v>
   <v>       0.12500000       0.00000000       0.37500000 </v>
   <v>       0.25000000       0.00000000       0.37500000 </v>
   <v>       0.37500000       0.00000000       0.37500000 </v>
   <v>       0.50000000       0.00000000       0.37500000 </v>
   <v>       0.12500000       0.12500000       0.37500000 </v>
   <v>       0.25000000       0.12500000       0.37500000 </v>
   <v>       0.37500000       0.12500000       0.37500000 </v>
   <v>       0.50000000       0.12500000       0.37500000 </v>
   <v>       0.25000000       0.25000000       0.37500000 </v>
   <v>       0.37500000       0.25000000       0.37500000 </v>
   <v>       0.50000000       0.25000000       0.37500000 </v>
   <v>       0.37500000       0.37500000       0.37500000 </v>
   <v>       0.50000000       0.37500000       0.37500000 </v>
   <v>       0.50000000       0.50000000       0.37500000 </v>
   <v>       0.00000000       0.00000000       0.50000000 </v>
   <v>       0.12500000       0.00000000       0.50000000 </v>
   <v>       0.25000000       0.00000000       0.50000000 </v>
   <v>       0.37500000       0.00000000       0.50000000 </v>
   <v>       0.50000000       0.00000000       0.50000000 </v>
   <v>       0.12500000       0.12500000       0.50000000 </v>
   <v>       0.25000000       0.12500000       0.50000000 </v>
   <v>       0.37500000       0.12500000       0.50000000 </v>
   <v>       0.50000000       0.12500000       0.50000000 </v>
   <v>       0.25000000       0.25000000       0.50000000 </v>
   <v>       0.37500000       0.25000000       0.50000000 </v>
   <v>       0.50000000       0.25000000       0.50000000 </v>
   <v>       0.37500000       0.37500000       0.50000000 </v>
   <v>       0.50000000       0.37500000       0.50000000 </v>
   <v>       0.50000000       0.50000000       0.50000000 </v>
  </varray>
  <varray name="weights" >
   <v>       0.00195312 </v>
   <v>       0.00781250 </v>
   <v>       0.00781250 </v>
   <v>       0.00781250 </v>
   <v>       0.00390625 </v>
   <v>       0.00781250 </v>
   <v>       0.01562500 </v>
   <v>       0.01562500 </v>
   <v>       0.00781250 </v>
   <v>       0.00781250 </v>
   <v>       0.01562500 </v>
   <v>       0.00781250 </v>
   <v>       0.00781250 </v>
   <v>       0.00781250 </v>
   <v>       0.00195312 </v>
   <v>       0.00390625 </v>
   <v>       0.01562500 </v>
   <v>       0.01562500 </v>
   <v>       0.01562500 </v>
   <v>       0.00781250 </v>
   <v>       0.01562500 </v>
   <v>       0.03125000 </v>
   <v>       0.03125000 </v>
   <v>       0.01562500 </v>
   <v>       0.01562500 </v>
   <v>       0.03125000 </v>
   <v>       0.01562500 </v>
   <v>       0.01562500 </v>
   <v>       0.01562500 </v>
   <v>       0.00390625 </v>
   <v>       0.00390625 </v>
   <v>       0.01562500 </v>
   <v>       0.01562500 </v>
   <v>       0.01562500 </v>
   <v>       0.00781250 </v>
   <v>       0.01562500 </v>
   <v>       0.03125000 </v>
   <v>       0.03125000 </v>
   <v>       0.01562500 </v>
   <v>       0.01562500 </v>
   <v>       0.03125000 </v>
   <v>       0.01562500 </v>
   <v>       0.01562500 </v>
   <v>       0.01562500 </v>
   <v>       0.00390625 </v>
   <v>       0.00390625 </v>
   <v>       0.01562500 </v>
   <v>       0.01562500 </v>
   <v>       0.01562500 </v>
   <v>       0.00781250 </v>
   <v>       0.01562500 </v>
   <v>       0.03125000 </v>
   <v>       0.03125000 </v>
   <v>       0.01562500 </v>
   <v>       0.01562500 </v>
   <v>       0.03125000 </v>
   <v>       0.01562500 </v>
   <v>       0.01562500 </v>
   <v>       0.01562500 </v>
   <v>       0.00390625 </v>
   <v>       0.00195312 </v>
   <v>       0.00781250 </v>
   <v>       0.00781250 </v>
   <v>       0.00781250 </v>
   <v>       0.00390625 </v>
   <v>       0.00781250 </v>
   <v>       0.01562500 </v>
   <v>       0.01562500 </v>
   <v>       0.00781250 </v>
   <v>       0.00781250 </v>
   <v>       0.01562500 </v>
   <v>       0.00781250 </v>
   <v>       0.00781250 </v>
   <v>       0.00781250 </v>
   <v>       0.00195312 </v>
  </varray>
 </kpoints>
 <parameters>
  <separator name="general" >
   <i type="string" name="SYSTEM">unknown system</i>
   <i type="logical" name="LCOMPAT"> F  </i>
  </separator>
  <separator name="electronic" >
   <i type="string" name="PREC">accura</i>
   <i name="ENMAX">    500.00000000</i>
   <i name="ENAUG">    605.39200000</i>
   <i name="EDIFF">      0.00000001</i>
   <i type="int" name="IALGO">    38</i>
   <i type="int" name="IWAVPR">    11</i>
   <i type="int" name="NBANDS">    32</i>
   <i name="NELECT">     40.00000000</i>
   <i type="int" name="TURBO">     0</i>
   <i type="int" name="IRESTART">     0</i>
   <i type="int" name="NREBOOT">     0</i>
   <i type="int" name="NMIN">     0</i>
   <i name="EREF">      0.00000000</i>
   <separator name="electronic smearing" >
    <i type="int" name="ISMEAR">     0</i>
    <i name="SIGMA">      0.10000000</i>
    <i name="KSPACING">      0.50000000</i>
    <i type="logical" name="KGAMMA"> T  </i>
   </separator>
   <separator name="electronic projectors" >
    <i type="logical" name="LREAL"> F  </i>
    <v name="ROPT">      0.00000000      0.00000000      0.00000000</v>
    <i type="int" name="LMAXPAW">  -100</i>
    <i type="int" name="LMAXMIX">     2</i>
    <i type="logical" name="NLSPLINE"> F  </i>
   </separator>
   <separator name="electronic startup" >
    <i type="int" name="ISTART">     0</i>
    <i type="int" name="ICHARG">     2</i>
    <i type="int" name="INIWAV">     1</i>
   </separator>
   <separator name="electronic spin" >
    <i type="int" name="ISPIN">     1</i>
    <i type="logical" name="LNONCOLLINEAR"> F  </i>
    <v name="MAGMOM">      1.00000000      1.00000000      1.00000000      1.00000000      1.00000000</v>
    <i name="NUPDOWN">     -1.00000000</i>
    <i type="logical" name="LSORBIT"> F  </i>
    <v name="SAXIS">      0.00000000      0.00000000      1.00000000</v>
    <i type="logical" name="LSPIRAL"> F  </i>
    <v name="QSPIRAL">      0.00000000      0.00000000      0.00000000</v>
    <i type="logical" name="LZEROZ"> F  </i>
   </separator>
   <separator name="electronic exchange-correlation" >
    <i type="logical" name="LASPH"> F  </i>
    <i type="logical" name="LMETAGGA"> F  </i>
   </separator>
   <separator name="electronic convergence" >
    <i type="int" name="NELM">    60</i>
    <i type="int" name="NELMDL">     0</i>
    <i type="int" name="NELMIN">     2</i>
    <i name="ENINI">    500.00000000</i>
    <separator name="electronic convergence detail" >
     <i type="logical" name="LDIAG"> T  </i>
     <i type="logical" name="LSUBROT"> F  </i>
     <i name="WEIMIN">      0.00100000</i>
     <i name="EBREAK">      0.00000000</i>
     <i name="DEPER">      0.30000000</i>
     <i type="int" name="NRMM">     4</i>
     <i name="TIME">      0.40000000</i>
    </separator>
   </separator>
   <separator name="electronic mixer" >
    <i name="AMIX">      0.40000000</i>
    <i name="BMIX">      1.00000000</i>
    <i name="AMIN">      0.10000000</i>
    <i name="AMIX_MAG">      1.60000000</i>
    <i name="BMIX_MAG">      1.00000000</i>
    <separator name="electronic mixer details" >
     <i type="int" name="IMIX">     4</i>
     <i type="logical" name="MIXFIRST"> F  </i>
     <i type="int" name="MAXMIX">   -45</i>
     <i name="WC">    100.00000000</i>
     <i type="int" name="INIMIX">     1</i>
     <i type="int" name="MIXPRE">     1</i>
     <i type="int" name="MREMOVE">     5</i>
    </separator>
   </separator>
   <separator name="electronic dipolcorrection" >
    <i type="logical" name="LDIPOL"> F  </i>
    <i type="logical" name="LMONO"> F  </i>
    <i type="int" name="IDIPOL">     0</i>
    <i name="EPSILON">      1.00000000</i>
    <v name="DIPOL">   -100.00000000   -100.00000000   -100.00000000</v>
    <i name="EFIELD">      0.00000000</i>
   </separator>
  </separator>
  <separator name="grids" >
   <i type="int" name="NGX">    30</i>
   <i type="int" name="NGY">    30</i>
   <i type="int" name="NGZ">    30</i>
   <i type="int" name="NGXF">    60</i>
   <i type="int" name="NGYF">    60</i>
   <i type="int" name="NGZF">    60</i>
   <i type="logical" name="ADDGRID"> T  </i>
  </separator>
  <separator name="ionic" >
   <i type="int" name="NSW">     1</i>
   <i type="int" name="IBRION">     8</i>
   <i type="int" name="MDALGO">     0</i>
   <i type="int" name="ISIF">     2</i>
   <i name="PSTRESS">      0.00000000</i>
   <i name="EDIFFG">      0.00000010</i>
   <i type="int" name="NFREE">     0</i>
   <i name="POTIM">      0.50000000</i>
   <i name="SMASS">     -3.00000000</i>
   <i name="SCALEE">      1.00000000</i>
  </separator>
  <separator name="ionic md" >
   <i name="TEBEG">      0.00010000</i>
   <i name="TEEND">      0.00010000</i>
   <i type="int" name="NBLOCK">     1</i>
   <i type="int" name="KBLOCK">     1</i>
   <i type="int" name="NPACO">   256</i>
   <i name="APACO">     16.00000000</i>
  </separator>
  <separator name="symmetry" >
   <i type="int" name="ISYM">     2</i>
   <i name="SYMPREC">      0.00001000</i>
  </separator>
  <separator name="dos" >
   <i type="int" name="LORBIT">     0</i>
   <v name="RWIGS">     -1.00000000     -1.00000000     -1.00000000</v>
   <i type="int" name="NEDOS">   301</i>
   <i name="EMIN">     10.00000000</i>
   <i name="EMAX">    -10.00000000</i>
   <i name="EFERMI">      0.00000000</i>
  </separator>
  <separator name="writing" >
   <i type="int" name="NWRITE">     2</i>
   <i type="logical" name="LWAVE"> F  </i>
   <i type="logical" name="LDOWNSAMPLE"> F  </i>
   <i type="logical" name="LCHARG"> F  </i>
   <i type="logical" name="LPARD"> F  </i>
   <i type="logical" name="LVTOT"> F  </i>
   <i type="logical" name="LVHAR"> F  </i>
   <i type="logical" name="LELF"> F  </i>
   <i type="logical" name="LOPTICS"> F  </i>
   <v name="STM">      0.00000000      0.00000000      0.00000000      0.00000000      0.00000000      0.00000000      0.00000000</v>
  </separator>
  <separator name="performance" >
   <i type="int" name="NPAR">    32</i>
   <i type="int" name="NSIM">     4</i>
   <i type="int" name="NBLK">    -1</i>
   <i type="logical" name="LPLANE"> T  </i>
   <i type="logical" name="LSCALAPACK"> T  </i>
   <i type="logical" name="LSCAAWARE"> F  </i>
   <i type="logical" name="LSCALU"> F  </i>
   <i type="logical" name="LASYNC"> F  </i>
   <i type="logical" name="LORBITALREAL"> F  </i>
  </separator>
  <separator name="miscellaneous" >
   <i type="int" name="IDIOT">     3</i>
   <i type="int" name="ISPECIAL">     0</i>
   <i type="logical" name="LMUSIC"> F  </i>
   <v name="POMASS">    137.32700000     47.88000000     16.00000000</v>
   <v name="DARWINR">      0.00000000      0.00000000      0.00000000</v>
   <v name="DARWINV">      1.00000000      1.00000000      1.00000000</v>
   <i type="logical" name="LCORR"> T  </i>
  </separator>
  <i type="logical" name="GGA_COMPAT"> T  </i>
  <i type="logical" name="LBERRY"> F  </i>
  <i type="int" name="ICORELEVEL">     0</i>
  <i type="logical" name="LDAU"> F  </i>
  <i type="int" name="I_CONSTRAINED_M">     0</i>
  <separator name="electronic exchange-correlation" >
   <i type="string" name="GGA">--</i>
   <i type="int" name="VOSKOWN">     0</i>
   <i type="logical" name="LHFCALC"> F  </i>
   <i type="string" name="PRECFOCK"></i>
   <i type="logical" name="LSYMGRAD"> F  </i>
   <i type="logical" name="LHFONE"> F  </i>
   <i type="logical" name="LRHFCALC"> F  </i>
   <i type="logical" name="LTHOMAS"> F  </i>
   <i type="logical" name="LMODELHF"> F  </i>
   <i name="ENCUT4O">     -1.00000000</i>
   <i type="int" name="EXXOEP">     0</i>
   <i type="int" name="FOURORBIT">     0</i>
   <i name="AEXX">      0.00000000</i>
   <i name="HFALPHA">      0.00000000</i>
   <i name="MCALPHA">      0.00000000</i>
   <i name="ALDAX">      1.00000000</i>
   <i name="AGGAX">      1.00000000</i>
   <i name="ALDAC">      1.00000000</i>
   <i name="AGGAC">      1.00000000</i>
   <i type="int" name="NKREDX">     1</i>
   <i type="int" name="NKREDY">     1</i>
   <i type="int" name="NKREDZ">     1</i>
   <i type="logical" name="SHIFTRED"> F  </i>
   <i type="logical" name="ODDONLY"> F  </i>
   <i type="logical" name="EVENONLY"> F  </i>
   <i type="int" name="LMAXFOCK">     0</i>
   <i type="int" name="NMAXFOCKAE">     0</i>
   <i type="logical" name="LFOCKAEDFT"> F  </i>
   <i name="HFSCREEN">      0.00000000</i>
   <i name="HFSCREENC">      0.00000000</i>
   <i type="int" name="NBANDSGWLOW">     0</i>
  </separator>
  <separator name="vdW DFT" >
   <i type="logical" name="LUSE_VDW"> F  </i>
   <i name="Zab_VDW">     -0.84910000</i>
   <i name="PARAM1">      0.12340000</i>
   <i name="PARAM2">      1.00000000</i>
   <i name="PARAM3">      0.00000000</i>
  </separator>
  <separator name="model GW" >
   <i type="int" name="MODEL_GW">     0</i>
   <i name="MODEL_EPS0">      7.68323797</i>
   <i name="MODEL_ALPHA">      1.00000000</i>
  </separator>
  <separator name="linear response parameters" >
   <i type="logical" name="LEPSILON"> F  </i>
   <i type="logical" name="LRPA"> F  </i>
   <i type="logical" name="LNABLA"> F  </i>
   <i type="logical" name="LVEL"> F  </i>
   <i type="int" name="KINTER">     0</i>
   <i name="CSHIFT">      0.10000000</i>
   <i name="OMEGAMAX">     -1.00000000</i>
   <i name="DEG_THRESHOLD">      0.00200000</i>
   <i name="RTIME">     -0.10000000</i>
   <i name="WPLASMAI">      0.00000000</i>
   <v name="DFIELD">      0.00000000      0.00000000      0.00000000</v>
   <v name="WPLASMA">      0.00000000      0.00000000      0.00000000      0.00000000      0.00000000      0.00000000      0.00000000      0.00000000      0.00000000</v>
  </separator>
  <separator name="orbital magnetization" >
   <i type="logical" name="NUCIND"> F  </i>
   <v name="MAGPOS">      0.00000000      0.00000000      0.00000000</v>
   <i type="logical" name="LNICSALL"> T  </i>
   <i type="logical" name="ORBITALMAG"> F  </i>
   <i type="logical" name="LMAGBLOCH"> F  </i>
   <i type="logical" name="LCHIMAG"> F  </i>
   <i type="logical" name="LGAUGE"> T  </i>
   <i type="int" name="MAGATOM">     0</i>
   <v name="MAGDIPOL">      0.00000000      0.00000000      0.00000000</v>
   <v name="AVECCONST">      0.00000000      0.00000000      0.00000000</v>
  </separator>
  <separator name="response functions" >
   <i type="logical" name="LADDER"> F  </i>
   <i type="logical" name="LRPAFORCE"> F  </i>
   <i type="logical" name="LFXC"> F  </i>
   <i type="logical" name="LHARTREE"> T  </i>
   <i type="int" name="IBSE">     0</i>
   <v type="int" name="KPOINT">    -1     0     0     0</v>
   <i type="logical" name="LTCTE"> F  </i>
   <i type="logical" name="LTETE"> F  </i>
   <i type="logical" name="LTRIPLET"> F  </i>
   <i type="logical" name="LFXCEPS"> F  </i>
   <i type="logical" name="LFXHEG"> F  </i>
   <i type="int" name="NATURALO">     2</i>
   <i type="logical" name="L2ORDER"> F  </i>
   <i type="logical" name="LMP2LT"> F  </i>
   <i type="logical" name="LUSEW"> F  </i>
   <i name="ENCUTGW">     -2.00000000</i>
   <i name="ENCUTGWSOFT">     -2.00000000</i>
   <i name="ENCUTLF">     -1.00000000</i>
   <i type="int" name="LMAXMP2">    -1</i>
   <i name="SCISSOR">      0.00000000</i>
   <i type="int" name="NOMEGA">     0</i>
   <i type="int" name="NOMEGAR">     0</i>
   <i type="int" name="NBANDSGW">    -1</i>
   <i type="int" name="NBANDSO">    -1</i>
   <i type="int" name="NBANDSV">    -1</i>
   <i type="int" name="NELM">     1</i>
   <i type="int" name="NELMHF">     1</i>
   <i type="int" name="DIM">     3</i>
   <i type="int" name="ANTIRES">     0</i>
   <i name="OMEGAMAX">    -30.00000000</i>
   <i name="OMEGAMIN">    -30.00000000</i>
   <i name="OMEGATL">   -200.00000000</i>
   <i type="int" name="OMEGAGRID">   140</i>
   <i name="CSHIFT">     -0.10000000</i>
   <i type="logical" name="SELFENERGY"> F  </i>
   <i type="logical" name="LSPECTRAL"> F  </i>
   <i type="logical" name="LSPECTRALGW"> F  </i>
   <i type="logical" name="LSINGLES"> F  </i>
   <i type="logical" name="LFERMIGW"> F  </i>
   <i type="logical" name="ODDONLYGW"> F  </i>
   <i type="logical" name="EVENONLYGW"> F  </i>
   <i type="int" name="NKREDLFX">     1</i>
   <i type="int" name="NKREDLFY">     1</i>
   <i type="int" name="NKREDLFZ">     1</i>
   <i type="int" name="MAXMEM">  2800</i>
   <i type="int" name="TELESCOPE">     0</i>
   <i type="int" name="TAUPAR">     1</i>
   <i type="int" name="OMEGAPAR">    -1</i>
   <i name="LAMBDA">      1.00000000</i>
  </separator>
  <separator name="External order field" >
   <i name="OFIELD_KAPPA">      0.00000000</i>
   <v name="OFIELD_K">      0.00000000      0.00000000      0.00000000</v>
   <i name="OFIELD_Q6_NEAR">      0.00000000</i>
   <i name="OFIELD_Q6_FAR">      0.00000000</i>
   <i name="OFIELD_A">      0.00000000</i>
  </separator>
 </parameters>
 <atominfo>
  <atoms>       5 </atoms>
  <types>       3 </types>
  <array name="atoms" >
   <dimension dim="1">ion</dimension>
   <field type="string">element</field>
   <field type="int">atomtype</field>
   <set>
    <rc><c>Ba</c><c>   1</c></rc>
    <rc><c>Ti</c><c>   2</c></rc>
    <rc><c>O </c><c>   3</c></rc>
    <rc><c>O </c><c>   3</c></rc>
    <rc><c>O </c><c>   3</c></rc>
   </set>
  </array>
  <array name="atomtypes" >
   <dimension dim="1">type</dimension>
   <field type="int">atomspertype</field>
   <field type="string">element</field>
   <field>mass</field>
   <field>valence</field>
   <field type="string">pseudopotential</field>
   <set>
    <rc><c>   1</c><c>Ba</c><c>    137.32700000</c><c>     10.00000000</c><c>  PAW_PBE Ba_sv 06Sep2000               </c></rc>
    <rc><c>   1</c><c>Ti</c><c>     47.88000000</c><c>     12.00000000</c><c>  PAW_PBE Ti_sv 26Sep2005               </c></rc>
    <rc><c>   3</c><c>O </c><c>     16.00000000</c><c>      6.00000000</c><c>  PAW_PBE O 08Apr2002                   </c></rc>
   </set>
  </array>
 </atominfo>
 <structure name="initialpos" >
  <crystal>
   <varray name="basis" >
    <v>       3.98600000       0.00000000       0.00000000 </v>
    <v>       0.00000000       3.98600000       0.00000000 </v>
    <v>       0.00000000       0.00000000       4.02984600 </v>
   </varray>
   <i name="volume">     64.02698310 </i>
   <varray name="rec_basis" >
    <v>       0.25087807       0.00000000       0.00000000 </v>
    <v>       0.00000000       0.25087807       0.00000000 </v>
    <v>       0.00000000       0.00000000       0.24814844 </v>
   </varray>
  </crystal>
  <varray name="positions" >
   <v>       0.00000000       0.00000000       0.99032482 </v>
   <v>       0.50000000       0.50000000       0.47519704 </v>
   <v>       0.50000000       0.50000000       0.01433998 </v>
   <v>       0.00000000       0.50000000       0.50506908 </v>
   <v>       0.50000000       0.00000000       0.50506908 </v>
  </varray>
 </structure>
 <calculation>
  <scstep>
   <time name="dav">    1.18   47.28</time>
   <time name="total">    1.21   48.44</time>
   <energy>
    <i name="alphaZ">    259.11100597 </i>
    <i name="ewald">  -2817.54868677 </i>
    <i name="hartreedc">   -859.17165030 </i>
    <i name="XCdc">    171.84745624 </i>
    <i name="pawpsdc">   2821.55992848 </i>
    <i name="pawaedc">  -2804.74391990 </i>
    <i name="eentropy">     -0.00501233 </i>
    <i name="bandstr">   -206.88772486 </i>
    <i name="atom">   3586.00933496 </i>
    <i name="e_fr_energy">    150.17073149 </i>
    <i name="e_wo_entrp">    150.17574381 </i>
    <i name="e_0_energy">    150.17323765 </i>
   </energy>
  </scstep>
  <scstep>
   <time name="dav">    1.75   70.08</time>
   <time name="total">    1.75   70.11</time>
   <energy>
    <i name="e_fr_energy">    -47.88501446 </i>
    <i name="e_wo_entrp">    -47.88501446 </i>
    <i name="e_0_energy">    -47.88501446 </i>
   </energy>
  </scstep>
  <scstep>
   <time name="dav">    1.45   57.92</time>
   <time name="total">    1.45   57.95</time>
   <energy>
    <i name="e_fr_energy">    -50.71914733 </i>
    <i name="e_wo_entrp">    -50.71914733 </i>
    <i name="e_0_energy">    -50.71914733 </i>
   </energy>
  </scstep>
  <scstep>
   <time name="dav">    2.69  107.61</time>
   <time name="total">    2.69  107.64</time>
   <energy>
    <i name="e_fr_energy">    -50.78193849 </i>
    <i name="e_wo_entrp">    -50.78193849 </i>
    <i name="e_0_energy">    -50.78193849 </i>
   </energy>
  </scstep>
  <scstep>
   <time name="dav">    1.49   59.59</time>
   <time name="total">    1.55   61.90</time>
   <energy>
    <i name="e_fr_energy">    -50.78207746 </i>
    <i name="e_wo_entrp">    -50.78207746 </i>
    <i name="e_0_energy">    -50.78207746 </i>
   </energy>
  </scstep>
  <scstep>
   <time name="dav">    1.24   49.68</time>
   <time name="total">    1.32   52.99</time>
   <energy>
    <i name="e_fr_energy">    -40.77179195 </i>
    <i name="e_wo_entrp">    -40.77179190 </i>
    <i name="e_0_energy">    -40.77179192 </i>
   </energy>
  </scstep>
  <scstep>
   <time name="dav">    1.28   51.39</time>
   <time name="total">    1.37   54.71</time>
   <energy>
    <i name="e_fr_energy">    -40.13818800 </i>
    <i name="e_wo_entrp">    -40.13818800 </i>
    <i name="e_0_energy">    -40.13818800 </i>
   </energy>
  </scstep>
  <scstep>
   <time name="dav">    1.68   67.05</time>
   <time name="total">    1.76   70.35</time>
   <energy>
    <i name="e_fr_energy">    -40.26462234 </i>
    <i name="e_wo_entrp">    -40.26462234 </i>
    <i name="e_0_energy">    -40.26462234 </i>
   </energy>
  </scstep>
  <scstep>
   <time name="dav">    1.89   75.49</time>
   <time name="total">    1.97   78.81</time>
   <energy>
    <i name="e_fr_energy">    -40.01552303 </i>
    <i name="e_wo_entrp">    -40.01552303 </i>
    <i name="e_0_energy">    -40.01552303 </i>
   </energy>
  </scstep>
  <scstep>
   <time name="dav">    1.40   55.90</time>
   <time name="total">    1.48   59.19</time>
   <energy>
    <i name="e_fr_energy">    -39.98016106 </i>
    <i name="e_wo_entrp">    -39.98016106 </i>
    <i name="e_0_energy">    -39.98016106 </i>
   </energy>
  </scstep>
  <scstep>
   <time name="dav">    2.45   98.19</time>
   <time name="total">    2.54  101.54</time>
   <energy>
    <i name="e_fr_energy">    -39.98025127 </i>
    <i name="e_wo_entrp">    -39.98025127 </i>
    <i name="e_0_energy">    -39.98025127 </i>
   </energy>
  </scstep>
  <scstep>
   <time name="dav">    1.67   66.83</time>
   <time name="total">    1.75   70.12</time>
   <energy>
    <i name="e_fr_energy">    -39.98018565 </i>
    <i name="e_wo_entrp">    -39.98018565 </i>
    <i name="e_0_energy">    -39.98018565 </i>
   </energy>
  </scstep>
  <scstep>
   <time name="dav">    2.37   94.88</time>
   <time name="total">    2.45   98.16</time>
   <energy>
    <i name="e_fr_energy">    -39.98021960 </i>
    <i name="e_wo_entrp">    -39.98021960 </i>
    <i name="e_0_energy">    -39.98021960 </i>
   </energy>
  </scstep>
  <scstep>
   <time name="dav">    2.49   99.69</time>
   <time name="total">    2.57  103.00</time>
   <energy>
    <i name="e_fr_energy">    -39.98022129 </i>
    <i name="e_wo_entrp">    -39.98022129 </i>
    <i name="e_0_energy">    -39.98022129 </i>
   </energy>
  </scstep>
  <scstep>
   <time name="dav">    2.04   81.44</time>
   <time name="total">    2.12   84.74</time>
   <energy>
    <i name="e_fr_energy">    -39.98022115 </i>
    <i name="e_wo_entrp">    -39.98022115 </i>
    <i name="e_0_energy">    -39.98022115 </i>
   </energy>
  </scstep>
  <scstep>
   <time name="dav">    1.72   68.78</time>
   <time name="total">    1.80   72.08</time>
   <energy>
    <i name="e_fr_energy">    -39.98022120 </i>
    <i name="e_wo_entrp">    -39.98022120 </i>
    <i name="e_0_energy">    -39.98022120 </i>
   </energy>
  </scstep>
  <scstep>
   <time name="dav">    2.29   91.56</time>
   <time name="total">    2.37   94.91</time>
   <energy>
    <i name="e_fr_energy">    -39.98022122 </i>
    <i name="e_wo_entrp">    -39.98022122 </i>
    <i name="e_0_energy">    -39.98022122 </i>
   </energy>
  </scstep>
  <scstep>
   <time name="dav">    0.80   32.02</time>
   <time name="total">    0.83   33.04</time>
   <energy>
    <i name="alphaZ">    259.11100597 </i>
    <i name="ewald">  -2817.54868677 </i>
    <i name="hartreedc">   -857.51102358 </i>
    <i name="XCdc">    173.21449678 </i>
    <i name="pawpsdc">   4109.21930717 </i>
    <i name="pawaedc">  -4091.43389362 </i>
    <i name="eentropy">     -0.00000000 </i>
    <i name="bandstr">   -401.04076214 </i>
    <i name="atom">   3586.00933496 </i>
    <i name="e_fr_energy">    -39.98022122 </i>
    <i name="e_wo_entrp">    -39.98022122 </i>
    <i name="e_0_energy">    -39.98022122 </i>
   </energy>
  </scstep>
  <structure>
   <crystal>
    <varray name="basis" >
     <v>       3.98600000       0.00000000       0.00000000 </v>
     <v>       0.00000000       3.98600000       0.00000000 </v>
     <v>       0.00000000       0.00000000       4.02984600 </v>
    </varray>
    <i name="volume">     64.02698310 </i>
    <varray name="rec_basis" >
     <v>       0.25087807       0.00000000       0.00000000 </v>
     <v>       0.00000000       0.25087807       0.00000000 </v>
     <v>       0.00000000       0.00000000       0.24814844 </v>
    </varray>
   </crystal>
   <varray name="positions" >
    <v>       0.00000000       0.00000000       0.99032482 </v>
    <v>       0.50000000       0.50000000       0.47519704 </v>
    <v>       0.50000000       0.50000000       0.01433998 </v>
    <v>       0.00000000       0.50000000       0.50506908 </v>
    <v>       0.50000000       0.00000000       0.50506908 </v>
   </varray>
  </structure>
  <varray name="forces" >
   <v>      -0.00000000      -0.00000000       0.00082378 </v>
   <v>       0.00000000       0.00000000       0.01267594 </v>
   <v>      -0.00000000      -0.00000000      -0.01076674 </v>
   <v>      -0.00000000      -0.00000000      -0.00136649 </v>
   <v>      -0.00000000      -0.00000000      -0.00136649 </v>
  </varray>
  <varray name="stress" >
   <v>      51.44348002       0.00000000       0.00000000 </v>
   <v>       0.00000000      51.44348002       0.00000000 </v>
   <v>       0.00000000       0.00000000      62.97159725 </v>
  </varray>
  <energy>
   <i name="e_fr_energy">    -39.98022122 </i>
   <i name="e_wo_entrp">    -39.98022122 </i>
   <i name="e_0_energy">     -0.00000000 </i>
  </energy>
  <kpoints>
   <generation param="Gamma">
    <v type="int" name="divisions">       8        8        8 </v>
    <v name="usershift">      0.00000000       0.00000000       0.00000000 </v>
    <v name="genvec1">      0.12500000       0.00000000       0.00000000 </v>
    <v name="genvec2">      0.00000000       0.12500000       0.00000000 </v>
    <v name="genvec3">      0.00000000       0.00000000       0.12500000 </v>
    <v name="shift">      0.00000000       0.00000000       0.00000000 </v>
   </generation>
   <varray name="kpointlist" >
    <v>       0.00000000       0.00000000       0.00000000 </v>
    <v>       0.12500000       0.00000000       0.00000000 </v>
    <v>       0.25000000       0.00000000       0.00000000 </v>
    <v>       0.37500000       0.00000000       0.00000000 </v>
    <v>       0.50000000       0.00000000       0.00000000 </v>
    <v>       0.00000000       0.12500000       0.00000000 </v>
    <v>       0.12500000       0.12500000       0.00000000 </v>
    <v>       0.25000000       0.12500000       0.00000000 </v>
    <v>       0.37500000       0.12500000       0.00000000 </v>
    <v>       0.50000000       0.12500000       0.00000000 </v>
    <v>       0.00000000       0.25000000       0.00000000 </v>
    <v>       0.12500000       0.25000000       0.00000000 </v>
    <v>       0.25000000       0.25000000       0.00000000 </v>
    <v>       0.37500000       0.25000000       0.00000000 </v>
    <v>       0.50000000       0.25000000       0.00000000 </v>
    <v>       0.00000000       0.37500000       0.00000000 </v>
    <v>       0.12500000       0.37500000       0.00000000 </v>
    <v>       0.25000000       0.37500000       0.00000000 </v>
    <v>       0.37500000       0.37500000       0.00000000 </v>
    <v>       0.50000000       0.37500000       0.00000000 </v>
    <v>       0.00000000       0.50000000       0.00000000 </v>
    <v>       0.12500000       0.50000000       0.00000000 </v>
    <v>       0.25000000       0.50000000       0.00000000 </v>
    <v>       0.37500000       0.50000000       0.00000000 </v>
    <v>       0.50000000       0.50000000       0.00000000 </v>
    <v>       0.00000000       0.00000000       0.12500000 </v>
    <v>       0.12500000       0.00000000       0.12500000 </v>
    <v>       0.25000000       0.00000000       0.12500000 </v>
    <v>       0.37500000       0.00000000       0.12500000 </v>
    <v>       0.50000000       0.00000000       0.12500000 </v>
    <v>      -0.37500000       0.00000000       0.12500000 </v>
    <v>      -0.25000000       0.00000000       0.12500000 </v>
    <v>      -0.12500000       0.00000000       0.12500000 </v>
    <v>       0.00000000       0.12500000       0.12500000 </v>
    <v>       0.12500000       0.12500000       0.12500000 </v>
    <v>       0.25000000       0.12500000       0.12500000 </v>
    <v>       0.37500000       0.12500000       0.12500000 </v>
    <v>       0.50000000       0.12500000       0.12500000 </v>
    <v>      -0.37500000       0.12500000       0.12500000 </v>
    <v>      -0.25000000       0.12500000       0.12500000 </v>
    <v>      -0.12500000       0.12500000       0.12500000 </v>
    <v>       0.00000000       0.25000000       0.12500000 </v>
    <v>       0.12500000       0.25000000       0.12500000 </v>
    <v>       0.25000000       0.25000000       0.12500000 </v>
    <v>       0.37500000       0.25000000       0.12500000 </v>
    <v>       0.50000000       0.25000000       0.12500000 </v>
    <v>      -0.37500000       0.25000000       0.12500000 </v>
    <v>      -0.25000000       0.25000000       0.12500000 </v>
    <v>      -0.12500000       0.25000000       0.12500000 </v>
    <v>       0.00000000       0.37500000       0.12500000 </v>
    <v>       0.12500000       0.37500000       0.12500000 </v>
    <v>       0.25000000       0.37500000       0.12500000 </v>
    <v>       0.37500000       0.37500000       0.12500000 </v>
    <v>       0.50000000       0.37500000       0.12500000 </v>
    <v>      -0.37500000       0.37500000       0.12500000 </v>
    <v>      -0.25000000       0.37500000       0.12500000 </v>
    <v>      -0.12500000       0.37500000       0.12500000 </v>
    <v>       0.00000000       0.50000000       0.12500000 </v>
    <v>       0.12500000       0.50000000       0.12500000 </v>
    <v>       0.25000000       0.50000000       0.12500000 </v>
    <v>       0.37500000       0.50000000       0.12500000 </v>
    <v>       0.50000000       0.50000000       0.12500000 </v>
    <v>      -0.37500000       0.50000000       0.12500000 </v>
    <v>      -0.25000000       0.50000000       0.12500000 </v>
    <v>      -0.12500000       0.50000000       0.12500000 </v>
    <v>       0.00000000       0.00000000       0.25000000 </v>
    <v>       0.12500000       0.00000000       0.25000000 </v>
    <v>       0.25000000       0.00000000       0.25000000 </v>
    <v>       0.37500000       0.00000000       0.25000000 </v>
    <v>       0.50000000       0.00000000       0.25000000 </v>
    <v>      -0.37500000       0.00000000       0.25000000 </v>
    <v>      -0.25000000       0.00000000       0.25000000 </v>
    <v>      -0.12500000       0.00000000       0.25000000 </v>
    <v>       0.00000000       0.12500000       0.25000000 </v>
    <v>       0.12500000       0.12500000       0.25000000 </v>
    <v>       0.25000000       0.12500000       0.25000000 </v>
    <v>       0.37500000       0.12500000       0.25000000 </v>
    <v>       0.50000000       0.12500000       0.25000000 </v>
    <v>      -0.37500000       0.12500000       0.25000000 </v>
    <v>      -0.25000000       0.12500000       0.25000000 </v>
    <v>      -0.12500000       0.12500000       0.25000000 </v>
    <v>       0.00000000       0.25000000       0.25000000 </v>
    <v>       0.12500000       0.25000000       0.25000000 </v>
    <v>       0.25000000       0.25000000       0.25000000 </v>
    <v>       0.37500000       0.25000000       0.25000000 </v>
    <v>       0.50000000       0.25000000       0.25000000 </v>
    <v>      -0.37500000       0.25000000       0.25000000 </v>
    <v>      -0.25000000       0.25000000       0.25000000 </v>
    <v>      -0.12500000       0.25000000       0.25000000 </v>
    <v>       0.00000000       0.37500000       0.25000000 </v>
    <v>       0.12500000       0.37500000       0.25000000 </v>
    <v>       0.25000000       0.37500000       0.25000000 </v>
    <v>       0.37500000       0.37500000       0.25000000 </v>
    <v>       0.50000000       0.37500000       0.25000000 </v>
    <v>      -0.37500000       0.37500000       0.25000000 </v>
    <v>      -0.25000000       0.37500000       0.25000000 </v>
    <v>      -0.12500000       0.37500000       0.25000000 </v>
    <v>       0.00000000       0.50000000       0.25000000 </v>
    <v>       0.12500000       0.50000000       0.25000000 </v>
    <v>       0.25000000       0.50000000       0.25000000 </v>
    <v>       0.37500000       0.50000000       0.25000000 </v>
    <v>       0.50000000       0.50000000       0.25000000 </v>
    <v>      -0.37500000       0.50000000       0.25000000 </v>
    <v>      -0.25000000       0.50000000       0.25000000 </v>
    <v>      -0.12500000       0.50000000       0.25000000 </v>
    <v>       0.00000000       0.00000000       0.37500000 </v>
    <v>       0.12500000       0.00000000       0.37500000 </v>
    <v>       0.25000000       0.00000000       0.37500000 </v>
    <v>       0.37500000       0.00000000       0.37500000 </v>
    <v>       0.50000000       0.00000000       0.37500000 </v>
    <v>      -0.37500000       0.00000000       0.37500000 </v>
    <v>      -0.25000000       0.00000000       0.37500000 </v>
    <v>      -0.12500000       0.00000000       0.37500000 </v>
    <v>       0.00000000       0.12500000       0.37500000 </v>
    <v>       0.12500000       0.12500000       0.37500000 </v>
    <v>       0.25000000       0.12500000       0.37500000 </v>
    <v>       0.37500000       0.12500000       0.37500000 </v>
    <v>       0.50000000       0.12500000       0.37500000 </v>
    <v>      -0.37500000       0.12500000       0.37500000 </v>
    <v>      -0.25000000       0.12500000       0.37500000 </v>
    <v>      -0.12500000       0.12500000       0.37500000 </v>
    <v>       0.00000000       0.25000000       0.37500000 </v>
    <v>       0.12500000       0.25000000       0.37500000 </v>
    <v>       0.25000000       0.25000000       0.37500000 </v>
    <v>       0.37500000       0.25000000       0.37500000 </v>
    <v>       0.50000000       0.25000000       0.37500000 </v>
    <v>      -0.37500000       0.25000000       0.37500000 </v>
    <v>      -0.25000000       0.25000000       0.37500000 </v>
    <v>      -0.12500000       0.25000000       0.37500000 </v>
    <v>       0.00000000       0.37500000       0.37500000 </v>
    <v>       0.12500000       0.37500000       0.37500000 </v>
    <v>       0.25000000       0.37500000       0.37500000 </v>
    <v>       0.37500000       0.37500000       0.37500000 </v>
    <v>       0.50000000       0.37500000       0.37500000 </v>
    <v>      -0.37500000       0.37500000       0.37500000 </v>
    <v>      -0.25000000       0.37500000       0.37500000 </v>
    <v>      -0.12500000       0.37500000       0.37500000 </v>
    <v>       0.00000000       0.50000000       0.37500000 </v>
    <v>       0.12500000       0.50000000       0.37500000 </v>
    <v>       0.25000000       0.50000000       0.37500000 </v>
    <v>       0.37500000       0.50000000       0.37500000 </v>
    <v>       0.50000000       0.50000000       0.37500000 </v>
    <v>      -0.37500000       0.50000000       0.37500000 </v>
    <v>      -0.25000000       0.50000000       0.37500000 </v>
    <v>      -0.12500000       0.50000000       0.37500000 </v>
    <v>       0.00000000       0.00000000       0.50000000 </v>
    <v>       0.12500000       0.00000000       0.50000000 </v>
    <v>       0.25000000       0.00000000       0.50000000 </v>
    <v>       0.37500000       0.00000000       0.50000000 </v>
    <v>       0.50000000       0.00000000       0.50000000 </v>
    <v>       0.00000000       0.12500000       0.50000000 </v>
    <v>       0.12500000       0.12500000       0.50000000 </v>
    <v>       0.25000000       0.12500000       0.50000000 </v>
    <v>       0.37500000       0.12500000       0.50000000 </v>
    <v>       0.50000000       0.12500000       0.50000000 </v>
    <v>       0.00000000       0.25000000       0.50000000 </v>
    <v>       0.12500000       0.25000000       0.50000000 </v>
    <v>       0.25000000       0.25000000       0.50000000 </v>
    <v>       0.37500000       0.25000000       0.50000000 </v>
    <v>       0.50000000       0.25000000       0.50000000 </v>
    <v>       0.00000000       0.37500000       0.50000000 </v>
    <v>       0.12500000       0.37500000       0.50000000 </v>
    <v>       0.25000000       0.37500000       0.50000000 </v>
    <v>       0.37500000       0.37500000       0.50000000 </v>
    <v>       0.50000000       0.37500000       0.50000000 </v>
    <v>       0.00000000       0.50000000       0.50000000 </v>
    <v>       0.12500000       0.50000000       0.50000000 </v>
    <v>       0.25000000       0.50000000       0.50000000 </v>
    <v>       0.37500000       0.50000000       0.50000000 </v>
    <v>       0.50000000       0.50000000       0.50000000 </v>
   </varray>
   <varray name="weights" >
    <v>       0.00195312 </v>
    <v>       0.00390625 </v>
    <v>       0.00390625 </v>
    <v>       0.00390625 </v>
    <v>       0.00195312 </v>
    <v>       0.00390625 </v>
    <v>       0.00781250 </v>
    <v>       0.00781250 </v>
    <v>       0.00781250 </v>
    <v>       0.00390625 </v>
    <v>       0.00390625 </v>
    <v>       0.00781250 </v>
    <v>       0.00781250 </v>
    <v>       0.00781250 </v>
    <v>       0.00390625 </v>
    <v>       0.00390625 </v>
    <v>       0.00781250 </v>
    <v>       0.00781250 </v>
    <v>       0.00781250 </v>
    <v>       0.00390625 </v>
    <v>       0.00195312 </v>
    <v>       0.00390625 </v>
    <v>       0.00390625 </v>
    <v>       0.00390625 </v>
    <v>       0.00195312 </v>
    <v>       0.00390625 </v>
    <v>       0.00390625 </v>
    <v>       0.00390625 </v>
    <v>       0.00390625 </v>
    <v>       0.00390625 </v>
    <v>       0.00390625 </v>
    <v>       0.00390625 </v>
    <v>       0.00390625 </v>
    <v>       0.00781250 </v>
    <v>       0.00781250 </v>
    <v>       0.00781250 </v>
    <v>       0.00781250 </v>
    <v>       0.00781250 </v>
    <v>       0.00781250 </v>
    <v>       0.00781250 </v>
    <v>       0.00781250 </v>
    <v>       0.00781250 </v>
    <v>       0.00781250 </v>
    <v>       0.00781250 </v>
    <v>       0.00781250 </v>
    <v>       0.00781250 </v>
    <v>       0.00781250 </v>
    <v>       0.00781250 </v>
    <v>       0.00781250 </v>
    <v>       0.00781250 </v>
    <v>       0.00781250 </v>
    <v>       0.00781250 </v>
    <v>       0.00781250 </v>
    <v>       0.00781250 </v>
    <v>       0.00781250 </v>
    <v>       0.00781250 </v>
    <v>       0.00781250 </v>
    <v>       0.00390625 </v>
    <v>       0.00390625 </v>
    <v>       0.00390625 </v>
    <v>       0.00390625 </v>
    <v>       0.00390625 </v>
    <v>       0.00390625 </v>
    <v>       0.00390625 </v>
    <v>       0.00390625 </v>
    <v>       0.00390625 </v>
    <v>       0.00390625 </v>
    <v>       0.00390625 </v>
    <v>       0.00390625 </v>
    <v>       0.00390625 </v>
    <v>       0.00390625 </v>
    <v>       0.00390625 </v>
    <v>       0.00390625 </v>
    <v>       0.00781250 </v>
    <v>       0.00781250 </v>
    <v>       0.00781250 </v>
    <v>       0.00781250 </v>
    <v>       0.00781250 </v>
    <v>       0.00781250 </v>
    <v>       0.00781250 </v>
    <v>       0.00781250 </v>
    <v>       0.00781250 </v>
    <v>       0.00781250 </v>
    <v>       0.00781250 </v>
    <v>       0.00781250 </v>
    <v>       0.00781250 </v>
    <v>       0.00781250 </v>
    <v>       0.00781250 </v>
    <v>       0.00781250 </v>
    <v>       0.00781250 </v>
    <v>       0.00781250 </v>
    <v>       0.00781250 </v>
    <v>       0.00781250 </v>
    <v>       0.00781250 </v>
    <v>       0.00781250 </v>
    <v>       0.00781250 </v>
    <v>       0.00781250 </v>
    <v>       0.00390625 </v>
    <v>       0.00390625 </v>
    <v>       0.00390625 </v>
    <v>       0.00390625 </v>
    <v>       0.00390625 </v>
    <v>       0.00390625 </v>
    <v>       0.00390625 </v>
    <v>       0.00390625 </v>
    <v>       0.00390625 </v>
    <v>       0.00390625 </v>
    <v>       0.00390625 </v>
    <v>       0.00390625 </v>
    <v>       0.00390625 </v>
    <v>       0.00390625 </v>
    <v>       0.00390625 </v>
    <v>       0.00390625 </v>
    <v>       0.00781250 </v>
    <v>       0.00781250 </v>
    <v>       0.00781250 </v>
    <v>       0.00781250 </v>
    <v>       0.00781250 </v>
    <v>       0.00781250 </v>
    <v>       0.00781250 </v>
    <v>       0.00781250 </v>
    <v>       0.00781250 </v>
    <v>       0.00781250 </v>
    <v>       0.00781250 </v>
    <v>       0.00781250 </v>
    <v>       0.00781250 </v>
    <v>       0.00781250 </v>
    <v>       0.00781250 </v>
    <v>       0.00781250 </v>
    <v>       0.00781250 </v>
    <v>       0.00781250 </v>
    <v>       0.00781250 </v>
    <v>       0.00781250 </v>
    <v>       0.00781250 </v>
    <v>       0.00781250 </v>
    <v>       0.00781250 </v>
    <v>       0.00781250 </v>
    <v>       0.00390625 </v>
    <v>       0.00390625 </v>
    <v>       0.00390625 </v>
    <v>       0.00390625 </v>
    <v>       0.00390625 </v>
    <v>       0.00390625 </v>
    <v>       0.00390625 </v>
    <v>       0.00390625 </v>
    <v>       0.00195312 </v>
    <v>       0.00390625 </v>
    <v>       0.00390625 </v>
    <v>       0.00390625 </v>
    <v>       0.00195312 </v>
    <v>       0.00390625 </v>
    <v>       0.00781250 </v>
    <v>       0.00781250 </v>
    <v>       0.00781250 </v>
    <v>       0.00390625 </v>
    <v>       0.00390625 </v>
    <v>       0.00781250 </v>
    <v>       0.00781250 </v>
    <v>       0.00781250 </v>
    <v>       0.00390625 </v>
    <v>       0.00390625 </v>
    <v>       0.00781250 </v>
    <v>       0.00781250 </v>
    <v>       0.00781250 </v>
    <v>       0.00390625 </v>
    <v>       0.00195312 </v>
    <v>       0.00390625 </v>
    <v>       0.00390625 </v>
    <v>       0.00390625 </v>
    <v>       0.00195312 </v>
   </varray>
  </kpoints>
  <scstep>
   <time name="total">    2.60  104.07</time>
   <energy>
    <i name="e_fr_energy">   -487.24675038 </i>
    <i name="e_wo_entrp">   -487.24675038 </i>
    <i name="e_0_energy">   -487.24675038 </i>
   </energy>
  </scstep>
  <scstep>
   <time name="total">    2.65  106.18</time>
   <energy>
    <i name="e_fr_energy">   -501.02822229 </i>
    <i name="e_wo_entrp">   -501.02822229 </i>
    <i name="e_0_energy">   -501.02822229 </i>
   </energy>
  </scstep>
  <scstep>
   <time name="total">    2.80  112.20</time>
   <energy>
    <i name="e_fr_energy">   -501.35917920 </i>
    <i name="e_wo_entrp">   -501.35917920 </i>
    <i name="e_0_energy">   -501.35917920 </i>
   </energy>
  </scstep>
  <scstep>
   <time name="total">    2.78  111.36</time>
   <energy>
    <i name="e_fr_energy">   -502.45360594 </i>
    <i name="e_wo_entrp">   -502.45360594 </i>
    <i name="e_0_energy">   -502.45360594 </i>
   </energy>
  </scstep>
  <scstep>
   <time name="total">    2.84  113.43</time>
   <energy>
    <i name="e_fr_energy">   -502.67587942 </i>
    <i name="e_wo_entrp">   -502.67587942 </i>
    <i name="e_0_energy">   -502.67587942 </i>
   </energy>
  </scstep>
  <scstep>
   <time name="total">    2.84  113.47</time>
   <energy>
    <i name="e_fr_energy">   -502.90345503 </i>
    <i name="e_wo_entrp">   -502.90345503 </i>
    <i name="e_0_energy">   -502.90345503 </i>
   </energy>
  </scstep>
  <scstep>
   <time name="total">    2.85  114.04</time>
   <energy>
    <i name="e_fr_energy">   -502.93557936 </i>
    <i name="e_wo_entrp">   -502.93557936 </i>
    <i name="e_0_energy">   -502.93557936 </i>
   </energy>
  </scstep>
  <scstep>
   <time name="total">    2.85  114.15</time>
   <energy>
    <i name="e_fr_energy">   -502.93759020 </i>
    <i name="e_wo_entrp">   -502.93759020 </i>
    <i name="e_0_energy">   -502.93759020 </i>
   </energy>
  </scstep>
  <scstep>
   <time name="total">    2.85  113.90</time>
   <energy>
    <i name="e_fr_energy">   -502.94137719 </i>
    <i name="e_wo_entrp">   -502.94137719 </i>
    <i name="e_0_energy">   -502.94137719 </i>
   </energy>
  </scstep>
  <scstep>
   <time name="total">    2.85  114.13</time>
   <energy>
    <i name="e_fr_energy">   -502.94185191 </i>
    <i name="e_wo_entrp">   -502.94185191 </i>
    <i name="e_0_energy">   -502.94185191 </i>
   </energy>
  </scstep>
  <scstep>
   <time name="total">    2.85  114.16</time>
   <energy>
    <i name="e_fr_energy">   -502.94225011 </i>
    <i name="e_wo_entrp">   -502.94225011 </i>
    <i name="e_0_energy">   -502.94225011 </i>
   </energy>
  </scstep>
  <scstep>
   <time name="total">    2.85  114.10</time>
   <energy>
    <i name="e_fr_energy">   -502.94238214 </i>
    <i name="e_wo_entrp">   -502.94238214 </i>
    <i name="e_0_energy">   -502.94238214 </i>
   </energy>
  </scstep>
  <scstep>
   <time name="total">    2.86  114.55</time>
   <energy>
    <i name="e_fr_energy">   -502.94242863 </i>
    <i name="e_wo_entrp">   -502.94242863 </i>
    <i name="e_0_energy">   -502.94242863 </i>
   </energy>
  </scstep>
  <scstep>
   <time name="total">    2.84  113.72</time>
   <energy>
    <i name="e_fr_energy">   -502.94245790 </i>
    <i name="e_wo_entrp">   -502.94245790 </i>
    <i name="e_0_energy">   -502.94245790 </i>
   </energy>
  </scstep>
  <scstep>
   <time name="total">    2.83  113.02</time>
   <energy>
    <i name="e_fr_energy">   -502.94246113 </i>
    <i name="e_wo_entrp">   -502.94246113 </i>
    <i name="e_0_energy">   -502.94246113 </i>
   </energy>
  </scstep>
  <kpoints>
   <generation param="Gamma">
    <v type="int" name="divisions">       8        8        8 </v>
    <v name="usershift">      0.00000000       0.00000000       0.00000000 </v>
    <v name="genvec1">      0.12500000       0.00000000       0.00000000 </v>
    <v name="genvec2">      0.00000000       0.12500000       0.00000000 </v>
    <v name="genvec3">      0.00000000       0.00000000       0.12500000 </v>
    <v name="shift">      0.00000000       0.00000000       0.00000000 </v>
   </generation>
   <varray name="kpointlist" >
    <v>       0.00000000       0.00000000       0.00000000 </v>
    <v>       0.12500000       0.00000000       0.00000000 </v>
    <v>       0.25000000       0.00000000       0.00000000 </v>
    <v>       0.37500000       0.00000000       0.00000000 </v>
    <v>       0.50000000       0.00000000       0.00000000 </v>
    <v>       0.12500000       0.12500000       0.00000000 </v>
    <v>       0.25000000       0.12500000       0.00000000 </v>
    <v>       0.37500000       0.12500000       0.00000000 </v>
    <v>       0.50000000       0.12500000       0.00000000 </v>
    <v>       0.25000000       0.25000000       0.00000000 </v>
    <v>       0.37500000       0.25000000       0.00000000 </v>
    <v>       0.50000000       0.25000000       0.00000000 </v>
    <v>       0.37500000       0.37500000       0.00000000 </v>
    <v>       0.50000000       0.37500000       0.00000000 </v>
    <v>       0.50000000       0.50000000       0.00000000 </v>
    <v>       0.00000000       0.00000000       0.12500000 </v>
    <v>       0.12500000       0.00000000       0.12500000 </v>
    <v>       0.25000000       0.00000000       0.12500000 </v>
    <v>       0.37500000       0.00000000       0.12500000 </v>
    <v>       0.50000000       0.00000000       0.12500000 </v>
    <v>       0.12500000       0.12500000       0.12500000 </v>
    <v>       0.25000000       0.12500000       0.12500000 </v>
    <v>       0.37500000       0.12500000       0.12500000 </v>
    <v>       0.50000000       0.12500000       0.12500000 </v>
    <v>       0.25000000       0.25000000       0.12500000 </v>
    <v>       0.37500000       0.25000000       0.12500000 </v>
    <v>       0.50000000       0.25000000       0.12500000 </v>
    <v>       0.37500000       0.37500000       0.12500000 </v>
    <v>       0.50000000       0.37500000       0.12500000 </v>
    <v>       0.50000000       0.50000000       0.12500000 </v>
    <v>       0.00000000       0.00000000       0.25000000 </v>
    <v>       0.12500000       0.00000000       0.25000000 </v>
    <v>       0.25000000       0.00000000       0.25000000 </v>
    <v>       0.37500000       0.00000000       0.25000000 </v>
    <v>       0.50000000       0.00000000       0.25000000 </v>
    <v>       0.12500000       0.12500000       0.25000000 </v>
    <v>       0.25000000       0.12500000       0.25000000 </v>
    <v>       0.37500000       0.12500000       0.25000000 </v>
    <v>       0.50000000       0.12500000       0.25000000 </v>
    <v>       0.25000000       0.25000000       0.25000000 </v>
    <v>       0.37500000       0.25000000       0.25000000 </v>
    <v>       0.50000000       0.25000000       0.25000000 </v>
    <v>       0.37500000       0.37500000       0.25000000 </v>
    <v>       0.50000000       0.37500000       0.25000000 </v>
    <v>       0.50000000       0.50000000       0.25000000 </v>
    <v>       0.00000000       0.00000000       0.37500000 </v>
    <v>       0.12500000       0.00000000       0.37500000 </v>
    <v>       0.25000000       0.00000000       0.37500000 </v>
    <v>       0.37500000       0.00000000       0.37500000 </v>
    <v>       0.50000000       0.00000000       0.37500000 </v>
    <v>       0.12500000       0.12500000       0.37500000 </v>
    <v>       0.25000000       0.12500000       0.37500000 </v>
    <v>       0.37500000       0.12500000       0.37500000 </v>
    <v>       0.50000000       0.12500000       0.37500000 </v>
    <v>       0.25000000       0.25000000       0.37500000 </v>
    <v>       0.37500000       0.25000000       0.37500000 </v>
    <v>       0.50000000       0.25000000       0.37500000 </v>
    <v>       0.37500000       0.37500000       0.37500000 </v>
    <v>       0.50000000       0.37500000       0.37500000 </v>
    <v>       0.50000000       0.50000000       0.37500000 </v>
    <v>       0.00000000       0.00000000       0.50000000 </v>
    <v>       0.12500000       0.00000000       0.50000000 </v>
    <v>       0.25000000       0.00000000       0.50000000 </v>
    <v>       0.37500000       0.00000000       0.50000000 </v>
    <v>       0.50000000       0.00000000       0.50000000 </v>
    <v>       0.12500000       0.12500000       0.50000000 </v>
    <v>       0.25000000       0.12500000       0.50000000 </v>
    <v>       0.37500000       0.12500000       0.50000000 </v>
    <v>       0.50000000       0.12500000       0.50000000 </v>
    <v>       0.25000000       0.25000000       0.50000000 </v>
    <v>       0.37500000       0.25000000       0.50000000 </v>
    <v>       0.50000000       0.25000000       0.50000000 </v>
    <v>       0.37500000       0.37500000       0.50000000 </v>
    <v>       0.50000000       0.37500000       0.50000000 </v>
    <v>       0.50000000       0.50000000       0.50000000 </v>
   </varray>
   <varray name="weights" >
    <v>       0.00195312 </v>
    <v>       0.00781250 </v>
    <v>       0.00781250 </v>
    <v>       0.00781250 </v>
    <v>       0.00390625 </v>
    <v>       0.00781250 </v>
    <v>       0.01562500 </v>
    <v>       0.01562500 </v>
    <v>       0.00781250 </v>
    <v>       0.00781250 </v>
    <v>       0.01562500 </v>
    <v>       0.00781250 </v>
    <v>       0.00781250 </v>
    <v>       0.00781250 </v>
    <v>       0.00195312 </v>
    <v>       0.00390625 </v>
    <v>       0.01562500 </v>
    <v>       0.01562500 </v>
    <v>       0.01562500 </v>
    <v>       0.00781250 </v>
    <v>       0.01562500 </v>
    <v>       0.03125000 </v>
    <v>       0.03125000 </v>
    <v>       0.01562500 </v>
    <v>       0.01562500 </v>
    <v>       0.03125000 </v>
    <v>       0.01562500 </v>
    <v>       0.01562500 </v>
    <v>       0.01562500 </v>
    <v>       0.00390625 </v>
    <v>       0.00390625 </v>
    <v>       0.01562500 </v>
    <v>       0.01562500 </v>
    <v>       0.01562500 </v>
    <v>       0.00781250 </v>
    <v>       0.01562500 </v>
    <v>       0.03125000 </v>
    <v>       0.03125000 </v>
    <v>       0.01562500 </v>
    <v>       0.01562500 </v>
    <v>       0.03125000 </v>
    <v>       0.01562500 </v>
    <v>       0.01562500 </v>
    <v>       0.01562500 </v>
    <v>       0.00390625 </v>
    <v>       0.00390625 </v>
    <v>       0.01562500 </v>
    <v>       0.01562500 </v>
    <v>       0.01562500 </v>
    <v>       0.00781250 </v>
    <v>       0.01562500 </v>
    <v>       0.03125000 </v>
    <v>       0.03125000 </v>
    <v>       0.01562500 </v>
    <v>       0.01562500 </v>
    <v>       0.03125000 </v>
    <v>       0.01562500 </v>
    <v>       0.01562500 </v>
    <v>       0.01562500 </v>
    <v>       0.00390625 </v>
    <v>       0.00195312 </v>
    <v>       0.00781250 </v>
    <v>       0.00781250 </v>
    <v>       0.00781250 </v>
    <v>       0.00390625 </v>
    <v>       0.00781250 </v>
    <v>       0.01562500 </v>
    <v>       0.01562500 </v>
    <v>       0.00781250 </v>
    <v>       0.00781250 </v>
    <v>       0.01562500 </v>
    <v>       0.00781250 </v>
    <v>       0.00781250 </v>
    <v>       0.00781250 </v>
    <v>       0.00195312 </v>
   </varray>
  </kpoints>
  <scstep>
   <time name="total">    1.19   47.79</time>
   <energy>
    <i name="e_fr_energy">   -490.34962436 </i>
    <i name="e_wo_entrp">   -490.34962436 </i>
    <i name="e_0_energy">   -490.34962436 </i>
   </energy>
  </scstep>
  <scstep>
   <time name="total">    1.26   50.48</time>
   <energy>
    <i name="e_fr_energy">   -503.77382978 </i>
    <i name="e_wo_entrp">   -503.77382978 </i>
    <i name="e_0_energy">   -503.77382978 </i>
   </energy>
  </scstep>
  <scstep>
   <time name="total">    1.31   52.37</time>
   <energy>
    <i name="e_fr_energy">   -504.11496853 </i>
    <i name="e_wo_entrp">   -504.11496853 </i>
    <i name="e_0_energy">   -504.11496853 </i>
   </energy>
  </scstep>
  <scstep>
   <time name="total">    1.30   52.01</time>
   <energy>
    <i name="e_fr_energy">   -504.84520354 </i>
    <i name="e_wo_entrp">   -504.84520354 </i>
    <i name="e_0_energy">   -504.84520354 </i>
   </energy>
  </scstep>
  <scstep>
   <time name="total">    1.30   51.93</time>
   <energy>
    <i name="e_fr_energy">   -505.33784823 </i>
    <i name="e_wo_entrp">   -505.33784823 </i>
    <i name="e_0_energy">   -505.33784823 </i>
   </energy>
  </scstep>
  <scstep>
   <time name="total">    1.31   52.47</time>
   <energy>
    <i name="e_fr_energy">   -505.50717871 </i>
    <i name="e_wo_entrp">   -505.50717871 </i>
    <i name="e_0_energy">   -505.50717871 </i>
   </energy>
  </scstep>
  <scstep>
   <time name="total">    1.31   52.52</time>
   <energy>
    <i name="e_fr_energy">   -505.60919763 </i>
    <i name="e_wo_entrp">   -505.60919763 </i>
    <i name="e_0_energy">   -505.60919763 </i>
   </energy>
  </scstep>
  <scstep>
   <time name="total">    1.30   52.20</time>
   <energy>
    <i name="e_fr_energy">   -505.66865399 </i>
    <i name="e_wo_entrp">   -505.66865399 </i>
    <i name="e_0_energy">   -505.66865399 </i>
   </energy>
  </scstep>
  <scstep>
   <time name="total">    1.31   52.48</time>
   <energy>
    <i name="e_fr_energy">   -505.65895338 </i>
    <i name="e_wo_entrp">   -505.65895338 </i>
    <i name="e_0_energy">   -505.65895338 </i>
   </energy>
  </scstep>
  <scstep>
   <time name="total">    1.31   52.45</time>
   <energy>
    <i name="e_fr_energy">   -505.66481665 </i>
    <i name="e_wo_entrp">   -505.66481665 </i>
    <i name="e_0_energy">   -505.66481665 </i>
   </energy>
  </scstep>
  <scstep>
   <time name="total">    1.32   52.74</time>
   <energy>
    <i name="e_fr_energy">   -505.66546445 </i>
    <i name="e_wo_entrp">   -505.66546445 </i>
    <i name="e_0_energy">   -505.66546445 </i>
   </energy>
  </scstep>
  <scstep>
   <time name="total">    1.32   52.64</time>
   <energy>
    <i name="e_fr_energy">   -505.66544860 </i>
    <i name="e_wo_entrp">   -505.66544860 </i>
    <i name="e_0_energy">   -505.66544860 </i>
   </energy>
  </scstep>
  <kpoints>
   <generation param="Gamma">
    <v type="int" name="divisions">       8        8        8 </v>
    <v name="usershift">      0.00000000       0.00000000       0.00000000 </v>
    <v name="genvec1">      0.12500000       0.00000000       0.00000000 </v>
    <v name="genvec2">      0.00000000       0.12500000       0.00000000 </v>
    <v name="genvec3">      0.00000000       0.00000000       0.12500000 </v>
    <v name="shift">      0.00000000       0.00000000       0.00000000 </v>
   </generation>
   <varray name="kpointlist" >
    <v>       0.00000000       0.00000000       0.00000000 </v>
    <v>       0.12500000       0.00000000       0.00000000 </v>
    <v>       0.25000000       0.00000000       0.00000000 </v>
    <v>       0.37500000       0.00000000       0.00000000 </v>
    <v>       0.50000000       0.00000000       0.00000000 </v>
    <v>       0.00000000       0.12500000       0.00000000 </v>
    <v>       0.12500000       0.12500000       0.00000000 </v>
    <v>       0.25000000       0.12500000       0.00000000 </v>
    <v>       0.37500000       0.12500000       0.00000000 </v>
    <v>       0.50000000       0.12500000       0.00000000 </v>
    <v>       0.00000000       0.25000000       0.00000000 </v>
    <v>       0.12500000       0.25000000       0.00000000 </v>
    <v>       0.25000000       0.25000000       0.00000000 </v>
    <v>       0.37500000       0.25000000       0.00000000 </v>
    <v>       0.50000000       0.25000000       0.00000000 </v>
    <v>       0.00000000       0.37500000       0.00000000 </v>
    <v>       0.12500000       0.37500000       0.00000000 </v>
    <v>       0.25000000       0.37500000       0.00000000 </v>
    <v>       0.37500000       0.37500000       0.00000000 </v>
    <v>       0.50000000       0.37500000       0.00000000 </v>
    <v>       0.00000000       0.50000000       0.00000000 </v>
    <v>       0.12500000       0.50000000       0.00000000 </v>
    <v>       0.25000000       0.50000000       0.00000000 </v>
    <v>       0.37500000       0.50000000       0.00000000 </v>
    <v>       0.50000000       0.50000000       0.00000000 </v>
    <v>       0.00000000       0.00000000       0.12500000 </v>
    <v>       0.12500000       0.00000000       0.12500000 </v>
    <v>       0.25000000       0.00000000       0.12500000 </v>
    <v>       0.37500000       0.00000000       0.12500000 </v>
    <v>       0.50000000       0.00000000       0.12500000 </v>
    <v>      -0.37500000       0.00000000       0.12500000 </v>
    <v>      -0.25000000       0.00000000       0.12500000 </v>
    <v>      -0.12500000       0.00000000       0.12500000 </v>
    <v>       0.00000000       0.12500000       0.12500000 </v>
    <v>       0.12500000       0.12500000       0.12500000 </v>
    <v>       0.25000000       0.12500000       0.12500000 </v>
    <v>       0.37500000       0.12500000       0.12500000 </v>
    <v>       0.50000000       0.12500000       0.12500000 </v>
    <v>      -0.37500000       0.12500000       0.12500000 </v>
    <v>      -0.25000000       0.12500000       0.12500000 </v>
    <v>      -0.12500000       0.12500000       0.12500000 </v>
    <v>       0.00000000       0.25000000       0.12500000 </v>
    <v>       0.12500000       0.25000000       0.12500000 </v>
    <v>       0.25000000       0.25000000       0.12500000 </v>
    <v>       0.37500000       0.25000000       0.12500000 </v>
    <v>       0.50000000       0.25000000       0.12500000 </v>
    <v>      -0.37500000       0.25000000       0.12500000 </v>
    <v>      -0.25000000       0.25000000       0.12500000 </v>
    <v>      -0.12500000       0.25000000       0.12500000 </v>
    <v>       0.00000000       0.37500000       0.12500000 </v>
    <v>       0.12500000       0.37500000       0.12500000 </v>
    <v>       0.25000000       0.37500000       0.12500000 </v>
    <v>       0.37500000       0.37500000       0.12500000 </v>
    <v>       0.50000000       0.37500000       0.12500000 </v>
    <v>      -0.37500000       0.37500000       0.12500000 </v>
    <v>      -0.25000000       0.37500000       0.12500000 </v>
    <v>      -0.12500000       0.37500000       0.12500000 </v>
    <v>       0.00000000       0.50000000       0.12500000 </v>
    <v>       0.12500000       0.50000000       0.12500000 </v>
    <v>       0.25000000       0.50000000       0.12500000 </v>
    <v>       0.37500000       0.50000000       0.12500000 </v>
    <v>       0.50000000       0.50000000       0.12500000 </v>
    <v>      -0.37500000       0.50000000       0.12500000 </v>
    <v>      -0.25000000       0.50000000       0.12500000 </v>
    <v>      -0.12500000       0.50000000       0.12500000 </v>
    <v>       0.00000000       0.00000000       0.25000000 </v>
    <v>       0.12500000       0.00000000       0.25000000 </v>
    <v>       0.25000000       0.00000000       0.25000000 </v>
    <v>       0.37500000       0.00000000       0.25000000 </v>
    <v>       0.50000000       0.00000000       0.25000000 </v>
    <v>      -0.37500000       0.00000000       0.25000000 </v>
    <v>      -0.25000000       0.00000000       0.25000000 </v>
    <v>      -0.12500000       0.00000000       0.25000000 </v>
    <v>       0.00000000       0.12500000       0.25000000 </v>
    <v>       0.12500000       0.12500000       0.25000000 </v>
    <v>       0.25000000       0.12500000       0.25000000 </v>
    <v>       0.37500000       0.12500000       0.25000000 </v>
    <v>       0.50000000       0.12500000       0.25000000 </v>
    <v>      -0.37500000       0.12500000       0.25000000 </v>
    <v>      -0.25000000       0.12500000       0.25000000 </v>
    <v>      -0.12500000       0.12500000       0.25000000 </v>
    <v>       0.00000000       0.25000000       0.25000000 </v>
    <v>       0.12500000       0.25000000       0.25000000 </v>
    <v>       0.25000000       0.25000000       0.25000000 </v>
    <v>       0.37500000       0.25000000       0.25000000 </v>
    <v>       0.50000000       0.25000000       0.25000000 </v>
    <v>      -0.37500000       0.25000000       0.25000000 </v>
    <v>      -0.25000000       0.25000000       0.25000000 </v>
    <v>      -0.12500000       0.25000000       0.25000000 </v>
    <v>       0.00000000       0.37500000       0.25000000 </v>
    <v>       0.12500000       0.37500000       0.25000000 </v>
    <v>       0.25000000       0.37500000       0.25000000 </v>
    <v>       0.37500000       0.37500000       0.25000000 </v>
    <v>       0.50000000       0.37500000       0.25000000 </v>
    <v>      -0.37500000       0.37500000       0.25000000 </v>
    <v>      -0.25000000       0.37500000       0.25000000 </v>
    <v>      -0.12500000       0.37500000       0.25000000 </v>
    <v>       0.00000000       0.50000000       0.25000000 </v>
    <v>       0.12500000       0.50000000       0.25000000 </v>
    <v>       0.25000000       0.50000000       0.25000000 </v>
    <v>       0.37500000       0.50000000       0.25000000 </v>
    <v>       0.50000000       0.50000000       0.25000000 </v>
    <v>      -0.37500000       0.50000000       0.25000000 </v>
    <v>      -0.25000000       0.50000000       0.25000000 </v>
    <v>      -0.12500000       0.50000000       0.25000000 </v>
    <v>       0.00000000       0.00000000       0.37500000 </v>
    <v>       0.12500000       0.00000000       0.37500000 </v>
    <v>       0.25000000       0.00000000       0.37500000 </v>
    <v>       0.37500000       0.00000000       0.37500000 </v>
    <v>       0.50000000       0.00000000       0.37500000 </v>
    <v>      -0.37500000       0.00000000       0.37500000 </v>
    <v>      -0.25000000       0.00000000       0.37500000 </v>
    <v>      -0.12500000       0.00000000       0.37500000 </v>
    <v>       0.00000000       0.12500000       0.37500000 </v>
    <v>       0.12500000       0.12500000       0.37500000 </v>
    <v>       0.25000000       0.12500000       0.37500000 </v>
    <v>       0.37500000       0.12500000       0.37500000 </v>
    <v>       0.50000000       0.12500000       0.37500000 </v>
    <v>      -0.37500000       0.12500000       0.37500000 </v>
    <v>      -0.25000000       0.12500000       0.37500000 </v>
    <v>      -0.12500000       0.12500000       0.37500000 </v>
    <v>       0.00000000       0.25000000       0.37500000 </v>
    <v>       0.12500000       0.25000000       0.37500000 </v>
    <v>       0.25000000       0.25000000       0.37500000 </v>
    <v>       0.37500000       0.25000000       0.37500000 </v>
    <v>       0.50000000       0.25000000       0.37500000 </v>
    <v>      -0.37500000       0.25000000       0.37500000 </v>
    <v>      -0.25000000       0.25000000       0.37500000 </v>
    <v>      -0.12500000       0.25000000       0.37500000 </v>
    <v>       0.00000000       0.37500000       0.37500000 </v>
    <v>       0.12500000       0.37500000       0.37500000 </v>
    <v>       0.25000000       0.37500000       0.37500000 </v>
    <v>       0.37500000       0.37500000       0.37500000 </v>
    <v>       0.50000000       0.37500000       0.37500000 </v>
    <v>      -0.37500000       0.37500000       0.37500000 </v>
    <v>      -0.25000000       0.37500000       0.37500000 </v>
    <v>      -0.12500000       0.37500000       0.37500000 </v>
    <v>       0.00000000       0.50000000       0.37500000 </v>
    <v>       0.12500000       0.50000000       0.37500000 </v>
    <v>       0.25000000       0.50000000       0.37500000 </v>
    <v>       0.37500000       0.50000000       0.37500000 </v>
    <v>       0.50000000       0.50000000       0.37500000 </v>
    <v>      -0.37500000       0.50000000       0.37500000 </v>
    <v>      -0.25000000       0.50000000       0.37500000 </v>
    <v>      -0.12500000       0.50000000       0.37500000 </v>
    <v>       0.00000000       0.00000000       0.50000000 </v>
    <v>       0.12500000       0.00000000       0.50000000 </v>
    <v>       0.25000000       0.00000000       0.50000000 </v>
    <v>       0.37500000       0.00000000       0.50000000 </v>
    <v>       0.50000000       0.00000000       0.50000000 </v>
    <v>       0.00000000       0.12500000       0.50000000 </v>
    <v>       0.12500000       0.12500000       0.50000000 </v>
    <v>       0.25000000       0.12500000       0.50000000 </v>
    <v>       0.37500000       0.12500000       0.50000000 </v>
    <v>       0.50000000       0.12500000       0.50000000 </v>
    <v>       0.00000000       0.25000000       0.50000000 </v>
    <v>       0.12500000       0.25000000       0.50000000 </v>
    <v>       0.25000000       0.25000000       0.50000000 </v>
    <v>       0.37500000       0.25000000       0.50000000 </v>
    <v>       0.50000000       0.25000000       0.50000000 </v>
    <v>       0.00000000       0.37500000       0.50000000 </v>
    <v>       0.12500000       0.37500000       0.50000000 </v>
    <v>       0.25000000       0.37500000       0.50000000 </v>
    <v>       0.37500000       0.37500000       0.50000000 </v>
    <v>       0.50000000       0.37500000       0.50000000 </v>
    <v>       0.00000000       0.50000000       0.50000000 </v>
    <v>       0.12500000       0.50000000       0.50000000 </v>
    <v>       0.25000000       0.50000000       0.50000000 </v>
    <v>       0.37500000       0.50000000       0.50000000 </v>
    <v>       0.50000000       0.50000000       0.50000000 </v>
   </varray>
   <varray name="weights" >
    <v>       0.00195312 </v>
    <v>       0.00390625 </v>
    <v>       0.00390625 </v>
    <v>       0.00390625 </v>
    <v>       0.00195312 </v>
    <v>       0.00390625 </v>
    <v>       0.00781250 </v>
    <v>       0.00781250 </v>
    <v>       0.00781250 </v>
    <v>       0.00390625 </v>
    <v>       0.00390625 </v>
    <v>       0.00781250 </v>
    <v>       0.00781250 </v>
    <v>       0.00781250 </v>
    <v>       0.00390625 </v>
    <v>       0.00390625 </v>
    <v>       0.00781250 </v>
    <v>       0.00781250 </v>
    <v>       0.00781250 </v>
    <v>       0.00390625 </v>
    <v>       0.00195312 </v>
    <v>       0.00390625 </v>
    <v>       0.00390625 </v>
    <v>       0.00390625 </v>
    <v>       0.00195312 </v>
    <v>       0.00390625 </v>
    <v>       0.00390625 </v>
    <v>       0.00390625 </v>
    <v>       0.00390625 </v>
    <v>       0.00390625 </v>
    <v>       0.00390625 </v>
    <v>       0.00390625 </v>
    <v>       0.00390625 </v>
    <v>       0.00781250 </v>
    <v>       0.00781250 </v>
    <v>       0.00781250 </v>
    <v>       0.00781250 </v>
    <v>       0.00781250 </v>
    <v>       0.00781250 </v>
    <v>       0.00781250 </v>
    <v>       0.00781250 </v>
    <v>       0.00781250 </v>
    <v>       0.00781250 </v>
    <v>       0.00781250 </v>
    <v>       0.00781250 </v>
    <v>       0.00781250 </v>
    <v>       0.00781250 </v>
    <v>       0.00781250 </v>
    <v>       0.00781250 </v>
    <v>       0.00781250 </v>
    <v>       0.00781250 </v>
    <v>       0.00781250 </v>
    <v>       0.00781250 </v>
    <v>       0.00781250 </v>
    <v>       0.00781250 </v>
    <v>       0.00781250 </v>
    <v>       0.00781250 </v>
    <v>       0.00390625 </v>
    <v>       0.00390625 </v>
    <v>       0.00390625 </v>
    <v>       0.00390625 </v>
    <v>       0.00390625 </v>
    <v>       0.00390625 </v>
    <v>       0.00390625 </v>
    <v>       0.00390625 </v>
    <v>       0.00390625 </v>
    <v>       0.00390625 </v>
    <v>       0.00390625 </v>
    <v>       0.00390625 </v>
    <v>       0.00390625 </v>
    <v>       0.00390625 </v>
    <v>       0.00390625 </v>
    <v>       0.00390625 </v>
    <v>       0.00781250 </v>
    <v>       0.00781250 </v>
    <v>       0.00781250 </v>
    <v>       0.00781250 </v>
    <v>       0.00781250 </v>
    <v>       0.00781250 </v>
    <v>       0.00781250 </v>
    <v>       0.00781250 </v>
    <v>       0.00781250 </v>
    <v>       0.00781250 </v>
    <v>       0.00781250 </v>
    <v>       0.00781250 </v>
    <v>       0.00781250 </v>
    <v>       0.00781250 </v>
    <v>       0.00781250 </v>
    <v>       0.00781250 </v>
    <v>       0.00781250 </v>
    <v>       0.00781250 </v>
    <v>       0.00781250 </v>
    <v>       0.00781250 </v>
    <v>       0.00781250 </v>
    <v>       0.00781250 </v>
    <v>       0.00781250 </v>
    <v>       0.00781250 </v>
    <v>       0.00390625 </v>
    <v>       0.00390625 </v>
    <v>       0.00390625 </v>
    <v>       0.00390625 </v>
    <v>       0.00390625 </v>
    <v>       0.00390625 </v>
    <v>       0.00390625 </v>
    <v>       0.00390625 </v>
    <v>       0.00390625 </v>
    <v>       0.00390625 </v>
    <v>       0.00390625 </v>
    <v>       0.00390625 </v>
    <v>       0.00390625 </v>
    <v>       0.00390625 </v>
    <v>       0.00390625 </v>
    <v>       0.00390625 </v>
    <v>       0.00781250 </v>
    <v>       0.00781250 </v>
    <v>       0.00781250 </v>
    <v>       0.00781250 </v>
    <v>       0.00781250 </v>
    <v>       0.00781250 </v>
    <v>       0.00781250 </v>
    <v>       0.00781250 </v>
    <v>       0.00781250 </v>
    <v>       0.00781250 </v>
    <v>       0.00781250 </v>
    <v>       0.00781250 </v>
    <v>       0.00781250 </v>
    <v>       0.00781250 </v>
    <v>       0.00781250 </v>
    <v>       0.00781250 </v>
    <v>       0.00781250 </v>
    <v>       0.00781250 </v>
    <v>       0.00781250 </v>
    <v>       0.00781250 </v>
    <v>       0.00781250 </v>
    <v>       0.00781250 </v>
    <v>       0.00781250 </v>
    <v>       0.00781250 </v>
    <v>       0.00390625 </v>
    <v>       0.00390625 </v>
    <v>       0.00390625 </v>
    <v>       0.00390625 </v>
    <v>       0.00390625 </v>
    <v>       0.00390625 </v>
    <v>       0.00390625 </v>
    <v>       0.00390625 </v>
    <v>       0.00195312 </v>
    <v>       0.00390625 </v>
    <v>       0.00390625 </v>
    <v>       0.00390625 </v>
    <v>       0.00195312 </v>
    <v>       0.00390625 </v>
    <v>       0.00781250 </v>
    <v>       0.00781250 </v>
    <v>       0.00781250 </v>
    <v>       0.00390625 </v>
    <v>       0.00390625 </v>
    <v>       0.00781250 </v>
    <v>       0.00781250 </v>
    <v>       0.00781250 </v>
    <v>       0.00390625 </v>
    <v>       0.00390625 </v>
    <v>       0.00781250 </v>
    <v>       0.00781250 </v>
    <v>       0.00781250 </v>
    <v>       0.00390625 </v>
    <v>       0.00195312 </v>
    <v>       0.00390625 </v>
    <v>       0.00390625 </v>
    <v>       0.00390625 </v>
    <v>       0.00195312 </v>
   </varray>
  </kpoints>
  <scstep>
   <time name="total">    1.75   70.05</time>
   <energy>
    <i name="e_fr_energy">  -2036.16605960 </i>
    <i name="e_wo_entrp">  -2036.16605960 </i>
    <i name="e_0_energy">  -2036.16605960 </i>
   </energy>
  </scstep>
  <scstep>
   <time name="total">    2.29   91.72</time>
   <energy>
    <i name="e_fr_energy">  -1964.48890202 </i>
    <i name="e_wo_entrp">  -1964.48890202 </i>
    <i name="e_0_energy">  -1964.48890202 </i>
   </energy>
  </scstep>
  <scstep>
   <time name="total">    2.58  103.00</time>
   <energy>
    <i name="e_fr_energy">  -1961.69310585 </i>
    <i name="e_wo_entrp">  -1961.69310585 </i>
    <i name="e_0_energy">  -1961.69310585 </i>
   </energy>
  </scstep>
  <scstep>
   <time name="total">    2.77  110.63</time>
   <energy>
    <i name="e_fr_energy">  -1959.14341479 </i>
    <i name="e_wo_entrp">  -1959.14341479 </i>
[...]
       <r>   12.7561    0.0000 </r>
       <r>   14.3944    0.0000 </r>
       <r>   16.8665    0.0000 </r>
       <r>   18.0565    0.0000 </r>
      </set>
      <set comment="kpoint 73">
       <r>  -52.6444    1.0000 </r>
       <r>  -28.9615    1.0000 </r>
       <r>  -28.9028    1.0000 </r>
       <r>  -28.9026    1.0000 </r>
       <r>  -20.7424    1.0000 </r>
       <r>  -12.3025    1.0000 </r>
       <r>  -12.2834    1.0000 </r>
       <r>  -12.1295    1.0000 </r>
       <r>   -6.7800    1.0000 </r>
       <r>   -6.6614    1.0000 </r>
       <r>   -6.5665    1.0000 </r>
       <r>   -0.4019    1.0000 </r>
       <r>    0.1647    1.0000 </r>
       <r>    0.2881    1.0000 </r>
       <r>    1.0287    1.0000 </r>
       <r>    1.3996    1.0000 </r>
       <r>    1.4466    1.0000 </r>
       <r>    3.5449    1.0000 </r>
       <r>    3.5792    1.0000 </r>
       <r>    3.6632    1.0000 </r>
       <r>    7.8709    0.0000 </r>
       <r>    7.9529    0.0000 </r>
       <r>    7.9621    0.0000 </r>
       <r>   10.7425    0.0000 </r>
       <r>   10.7734    0.0000 </r>
       <r>   11.2452    0.0000 </r>
       <r>   11.4038    0.0000 </r>
       <r>   11.7863    0.0000 </r>
       <r>   13.3981    0.0000 </r>
       <r>   13.9092    0.0000 </r>
       <r>   16.4824    0.0000 </r>
       <r>   18.4674    0.0000 </r>
      </set>
      <set comment="kpoint 74">
       <r>  -52.6442    1.0000 </r>
       <r>  -28.9610    1.0000 </r>
       <r>  -28.9104    1.0000 </r>
       <r>  -28.9023    1.0000 </r>
       <r>  -20.7318    1.0000 </r>
       <r>  -12.2759    1.0000 </r>
       <r>  -12.1858    1.0000 </r>
       <r>  -12.1260    1.0000 </r>
       <r>   -6.8010    1.0000 </r>
       <r>   -6.7757    1.0000 </r>
       <r>   -6.7239    1.0000 </r>
       <r>   -0.5008    1.0000 </r>
       <r>    0.0492    1.0000 </r>
       <r>    0.2473    1.0000 </r>
       <r>    1.2025    1.0000 </r>
       <r>    1.4015    1.0000 </r>
       <r>    1.4339    1.0000 </r>
       <r>    3.6039    1.0000 </r>
       <r>    3.7303    1.0000 </r>
       <r>    3.7613    1.0000 </r>
       <r>    7.9917    0.0000 </r>
       <r>    8.0025    0.0000 </r>
       <r>    8.0729    0.0000 </r>
       <r>   10.4779    0.0000 </r>
       <r>   10.8486    0.0000 </r>
       <r>   10.9695    0.0000 </r>
       <r>   11.4217    0.0000 </r>
       <r>   11.8286    0.0000 </r>
       <r>   13.6100    0.0000 </r>
       <r>   14.1758    0.0000 </r>
       <r>   16.4860    0.0000 </r>
       <r>   18.6406    0.0000 </r>
      </set>
      <set comment="kpoint 75">
       <r>  -52.6441    1.0000 </r>
       <r>  -28.9607    1.0000 </r>
       <r>  -28.9101    1.0000 </r>
       <r>  -28.9101    1.0000 </r>
       <r>  -20.7214    1.0000 </r>
       <r>  -12.2479    1.0000 </r>
       <r>  -12.0993    1.0000 </r>
       <r>  -12.0993    1.0000 </r>
       <r>   -6.8958    1.0000 </r>
       <r>   -6.8958    1.0000 </r>
       <r>   -6.8345    1.0000 </r>
       <r>   -0.5909    1.0000 </r>
       <r>    0.0440    1.0000 </r>
       <r>    0.0732    1.0000 </r>
       <r>    1.4209    1.0000 </r>
       <r>    1.4209    1.0000 </r>
       <r>    1.4421    1.0000 </r>
       <r>    3.7616    1.0000 </r>
       <r>    3.7616    1.0000 </r>
       <r>    3.9165    1.0000 </r>
       <r>    8.1082    0.0000 </r>
       <r>    8.1082    0.0000 </r>
       <r>    8.1196    0.0000 </r>
       <r>   10.3931    0.0000 </r>
       <r>   10.5900    0.0000 </r>
       <r>   10.5900    0.0000 </r>
       <r>   11.6199    0.0000 </r>
       <r>   11.8082    0.0000 </r>
       <r>   14.0563    0.0000 </r>
       <r>   14.1687    0.0000 </r>
       <r>   16.4157    0.0000 </r>
       <r>   18.9404    0.0000 </r>
      </set>
     </set>
    </set>
   </array>
  </eigenvalues>
  <separator name="orbital magnetization" >
   <v name="MAGDIPOLOUT">      0.00000000      0.00000000      0.00000000</v>
  </separator>
  <dos>
   <i name="efermi">      4.44092572 </i>
   <total>
    <array>
     <dimension dim="1">gridpoints</dimension>
     <dimension dim="2">spin</dimension>
     <field>energy</field>
     <field>total</field>
     <field>integrated</field>
     <set>
      <set comment="spin 1">
       <r>   -56.2265     0.0000     0.0000 </r>
       <r>   -55.9640     0.0000     0.0000 </r>
       <r>   -55.7015     0.0000     0.0000 </r>
       <r>   -55.4390     0.0000     0.0000 </r>
       <r>   -55.1765     0.0000     0.0000 </r>
       <r>   -54.9141     0.0000     0.0000 </r>
       <r>   -54.6516     0.0000     0.0000 </r>
       <r>   -54.3891     0.0000     0.0000 </r>
       <r>   -54.1266     0.0000     0.0000 </r>
       <r>   -53.8641     0.0000     0.0000 </r>
       <r>   -53.6016     0.0000     0.0000 </r>
       <r>   -53.3391     0.0000     0.0000 </r>
       <r>   -53.0766     0.0000     0.0000 </r>
       <r>   -52.8142     0.0653     0.0171 </r>
       <r>   -52.5517     6.8528     1.8159 </r>
       <r>   -52.2892     0.7013     2.0000 </r>
       <r>   -52.0267     0.0000     2.0000 </r>
       <r>   -51.7642     0.0000     2.0000 </r>
       <r>   -51.5017     0.0000     2.0000 </r>
       <r>   -51.2392     0.0000     2.0000 </r>
       <r>   -50.9767     0.0000     2.0000 </r>
       <r>   -50.7143     0.0000     2.0000 </r>
       <r>   -50.4518     0.0000     2.0000 </r>
       <r>   -50.1893     0.0000     2.0000 </r>
       <r>   -49.9268     0.0000     2.0000 </r>
       <r>   -49.6643     0.0000     2.0000 </r>
       <r>   -49.4018     0.0000     2.0000 </r>
       <r>   -49.1393     0.0000     2.0000 </r>
       <r>   -48.8768     0.0000     2.0000 </r>
       <r>   -48.6144     0.0000     2.0000 </r>
       <r>   -48.3519     0.0000     2.0000 </r>
       <r>   -48.0894     0.0000     2.0000 </r>
       <r>   -47.8269     0.0000     2.0000 </r>
       <r>   -47.5644     0.0000     2.0000 </r>
       <r>   -47.3019     0.0000     2.0000 </r>
       <r>   -47.0394     0.0000     2.0000 </r>
       <r>   -46.7769     0.0000     2.0000 </r>
       <r>   -46.5145     0.0000     2.0000 </r>
       <r>   -46.2520     0.0000     2.0000 </r>
       <r>   -45.9895     0.0000     2.0000 </r>
       <r>   -45.7270     0.0000     2.0000 </r>
       <r>   -45.4645     0.0000     2.0000 </r>
       <r>   -45.2020     0.0000     2.0000 </r>
       <r>   -44.9395     0.0000     2.0000 </r>
       <r>   -44.6770     0.0000     2.0000 </r>
       <r>   -44.4146     0.0000     2.0000 </r>
       <r>   -44.1521     0.0000     2.0000 </r>
       <r>   -43.8896     0.0000     2.0000 </r>
       <r>   -43.6271     0.0000     2.0000 </r>
       <r>   -43.3646     0.0000     2.0000 </r>
       <r>   -43.1021     0.0000     2.0000 </r>
       <r>   -42.8396     0.0000     2.0000 </r>
       <r>   -42.5771     0.0000     2.0000 </r>
       <r>   -42.3147     0.0000     2.0000 </r>
       <r>   -42.0522     0.0000     2.0000 </r>
       <r>   -41.7897     0.0000     2.0000 </r>
       <r>   -41.5272     0.0000     2.0000 </r>
       <r>   -41.2647     0.0000     2.0000 </r>
       <r>   -41.0022     0.0000     2.0000 </r>
       <r>   -40.7397     0.0000     2.0000 </r>
       <r>   -40.4772     0.0000     2.0000 </r>
       <r>   -40.2148     0.0000     2.0000 </r>
       <r>   -39.9523     0.0000     2.0000 </r>
       <r>   -39.6898     0.0000     2.0000 </r>
       <r>   -39.4273     0.0000     2.0000 </r>
       <r>   -39.1648     0.0000     2.0000 </r>
       <r>   -38.9023     0.0000     2.0000 </r>
       <r>   -38.6398     0.0000     2.0000 </r>
       <r>   -38.3773     0.0000     2.0000 </r>
       <r>   -38.1149     0.0000     2.0000 </r>
       <r>   -37.8524     0.0000     2.0000 </r>
       <r>   -37.5899     0.0000     2.0000 </r>
       <r>   -37.3274     0.0000     2.0000 </r>
       <r>   -37.0649     0.0000     2.0000 </r>
       <r>   -36.8024     0.0000     2.0000 </r>
       <r>   -36.5399     0.0000     2.0000 </r>
       <r>   -36.2774     0.0000     2.0000 </r>
       <r>   -36.0150     0.0000     2.0000 </r>
       <r>   -35.7525     0.0000     2.0000 </r>
       <r>   -35.4900     0.0000     2.0000 </r>
       <r>   -35.2275     0.0000     2.0000 </r>
       <r>   -34.9650     0.0000     2.0000 </r>
       <r>   -34.7025     0.0000     2.0000 </r>
       <r>   -34.4400     0.0000     2.0000 </r>
       <r>   -34.1775     0.0000     2.0000 </r>
       <r>   -33.9151     0.0000     2.0000 </r>
       <r>   -33.6526     0.0000     2.0000 </r>
       <r>   -33.3901     0.0000     2.0000 </r>
       <r>   -33.1276     0.0000     2.0000 </r>
       <r>   -32.8651     0.0000     2.0000 </r>
       <r>   -32.6026     0.0000     2.0000 </r>
       <r>   -32.3401     0.0000     2.0000 </r>
       <r>   -32.0776     0.0000     2.0000 </r>
       <r>   -31.8152     0.0000     2.0000 </r>
       <r>   -31.5527     0.0000     2.0000 </r>
       <r>   -31.2902     0.0000     2.0000 </r>
       <r>   -31.0277     0.0000     2.0000 </r>
       <r>   -30.7652     0.0000     2.0000 </r>
       <r>   -30.5027     0.0000     2.0000 </r>
       <r>   -30.2402     0.0000     2.0000 </r>
       <r>   -29.9777     0.0000     2.0000 </r>
       <r>   -29.7153     0.0000     2.0000 </r>
       <r>   -29.4528     0.0000     2.0000 </r>
       <r>   -29.1903     0.0024     2.0006 </r>
       <r>   -28.9278     8.6183     4.2628 </r>
       <r>   -28.6653    14.2174     7.9947 </r>
       <r>   -28.4028     0.0202     8.0000 </r>
       <r>   -28.1403     0.0000     8.0000 </r>
       <r>   -27.8778     0.0000     8.0000 </r>
       <r>   -27.6154     0.0000     8.0000 </r>
       <r>   -27.3529     0.0000     8.0000 </r>
       <r>   -27.0904     0.0000     8.0000 </r>
       <r>   -26.8279     0.0000     8.0000 </r>
       <r>   -26.5654     0.0000     8.0000 </r>
       <r>   -26.3029     0.0000     8.0000 </r>
       <r>   -26.0404     0.0000     8.0000 </r>
       <r>   -25.7779     0.0000     8.0000 </r>
       <r>   -25.5155     0.0000     8.0000 </r>
       <r>   -25.2530     0.0000     8.0000 </r>
       <r>   -24.9905     0.0000     8.0000 </r>
       <r>   -24.7280     0.0000     8.0000 </r>
       <r>   -24.4655     0.0000     8.0000 </r>
       <r>   -24.2030     0.0000     8.0000 </r>
       <r>   -23.9405     0.0000     8.0000 </r>
       <r>   -23.6780     0.0000     8.0000 </r>
       <r>   -23.4156     0.0000     8.0000 </r>
       <r>   -23.1531     0.0000     8.0000 </r>
       <r>   -22.8906     0.0000     8.0000 </r>
       <r>   -22.6281     0.0000     8.0000 </r>
       <r>   -22.3656     0.0000     8.0000 </r>
       <r>   -22.1031     0.0000     8.0000 </r>
       <r>   -21.8406     0.0000     8.0000 </r>
       <r>   -21.5781     0.0000     8.0000 </r>
       <r>   -21.3157     0.0000     8.0000 </r>
       <r>   -21.0532     0.0586     8.0154 </r>
       <r>   -20.7907     5.1613     9.3702 </r>
       <r>   -20.5282     2.3985     9.9997 </r>
       <r>   -20.2657     0.0010    10.0000 </r>
       <r>   -20.0032     0.0000    10.0000 </r>
       <r>   -19.7407     0.0000    10.0000 </r>
       <r>   -19.4782     0.0000    10.0000 </r>
       <r>   -19.2158     0.0000    10.0000 </r>
       <r>   -18.9533     0.0000    10.0000 </r>
       <r>   -18.6908     0.0000    10.0000 </r>
       <r>   -18.4283     0.0000    10.0000 </r>
       <r>   -18.1658     0.0000    10.0000 </r>
       <r>   -17.9033     0.0000    10.0000 </r>
       <r>   -17.6408     0.0000    10.0000 </r>
       <r>   -17.3783     0.0000    10.0000 </r>
       <r>   -17.1159     0.0000    10.0000 </r>
       <r>   -16.8534     0.0000    10.0000 </r>
       <r>   -16.5909     0.0000    10.0000 </r>
       <r>   -16.3284     0.0000    10.0000 </r>
       <r>   -16.0659     0.0000    10.0000 </r>
       <r>   -15.8034     0.0000    10.0000 </r>
       <r>   -15.5409     0.0000    10.0000 </r>
       <r>   -15.2784     0.0000    10.0000 </r>
       <r>   -15.0160     0.0000    10.0000 </r>
       <r>   -14.7535     0.0000    10.0000 </r>
       <r>   -14.4910     0.0000    10.0000 </r>
       <r>   -14.2285     0.0000    10.0000 </r>
       <r>   -13.9660     0.0000    10.0000 </r>
       <r>   -13.7035     0.0000    10.0000 </r>
       <r>   -13.4410     0.0011    10.0003 </r>
       <r>   -13.1785     0.5873    10.1544 </r>
       <r>   -12.9161     3.5357    11.0825 </r>
       <r>   -12.6536     2.2634    11.6766 </r>
       <r>   -12.3911     2.9131    12.4413 </r>
       <r>   -12.1286    12.1227    15.6233 </r>
       <r>   -11.8661     1.4345    15.9998 </r>
       <r>   -11.6036     0.0006    16.0000 </r>
       <r>   -11.3411     0.0000    16.0000 </r>
       <r>   -11.0786     0.0000    16.0000 </r>
       <r>   -10.8162     0.0000    16.0000 </r>
       <r>   -10.5537     0.0000    16.0000 </r>
       <r>   -10.2912     0.0000    16.0000 </r>
       <r>   -10.0287     0.0000    16.0000 </r>
       <r>    -9.7662     0.0000    16.0000 </r>
       <r>    -9.5037     0.0000    16.0000 </r>
       <r>    -9.2412     0.0000    16.0000 </r>
       <r>    -8.9787     0.0000    16.0000 </r>
       <r>    -8.7163     0.0000    16.0000 </r>
       <r>    -8.4538     0.0000    16.0000 </r>
       <r>    -8.1913     0.0000    16.0000 </r>
       <r>    -7.9288     0.0000    16.0000 </r>
       <r>    -7.6663     0.0000    16.0000 </r>
       <r>    -7.4038     0.0000    16.0000 </r>
       <r>    -7.1413     0.0000    16.0000 </r>
       <r>    -6.8788     0.0556    16.0146 </r>
       <r>    -6.6164     0.9900    16.2745 </r>
       <r>    -6.3539     2.8306    17.0175 </r>
       <r>    -6.0914     8.5580    19.2638 </r>
       <r>    -5.8289     8.0982    21.3895 </r>
       <r>    -5.5664     2.3233    21.9993 </r>
       <r>    -5.3039     0.0026    22.0000 </r>
       <r>    -5.0414     0.0000    22.0000 </r>
       <r>    -4.7789     0.0000    22.0000 </r>
       <r>    -4.5165     0.0000    22.0000 </r>
       <r>    -4.2540     0.0000    22.0000 </r>
       <r>    -3.9915     0.0000    22.0000 </r>
       <r>    -3.7290     0.0000    22.0000 </r>
       <r>    -3.4665     0.0000    22.0000 </r>
       <r>    -3.2040     0.0000    22.0000 </r>
       <r>    -2.9415     0.0000    22.0000 </r>
       <r>    -2.6790     0.0000    22.0000 </r>
       <r>    -2.4166     0.0000    22.0000 </r>
       <r>    -2.1541     0.0000    22.0000 </r>
       <r>    -1.8916     0.0000    22.0000 </r>
       <r>    -1.6291     0.0000    22.0000 </r>
       <r>    -1.3666     0.0000    22.0000 </r>
       <r>    -1.1041     0.0000    22.0000 </r>
       <r>    -0.8416     0.0000    22.0000 </r>
       <r>    -0.5791     0.0264    22.0069 </r>
       <r>    -0.3167     1.0826    22.2911 </r>
       <r>    -0.0542     3.2697    23.1494 </r>
       <r>     0.2083     3.6047    24.0955 </r>
       <r>     0.4708     3.5984    25.0401 </r>
       <r>     0.7333     3.7312    26.0195 </r>
       <r>     0.9958     4.3705    27.1667 </r>
       <r>     1.2583     6.9464    28.9900 </r>
       <r>     1.5208     7.8968    31.0628 </r>
       <r>     1.7832     3.5592    31.9971 </r>
       <r>     2.0457     2.8322    32.7405 </r>
       <r>     2.3082     2.9069    33.5035 </r>
       <r>     2.5707     2.1504    34.0680 </r>
       <r>     2.8332     5.4682    35.5033 </r>
       <r>     3.0957     6.4828    37.2050 </r>
       <r>     3.3582     5.8482    38.7401 </r>
       <r>     3.6207     3.3045    39.6075 </r>
       <r>     3.8831     1.4237    39.9811 </r>
       <r>     4.1456     0.0718    40.0000 </r>
       <r>     4.4081     0.0000    40.0000 </r>
       <r>     4.6706     0.0000    40.0000 </r>
       <r>     4.9331     0.0000    40.0000 </r>
       <r>     5.1956     0.0000    40.0000 </r>
       <r>     5.4581     0.0000    40.0000 </r>
       <r>     5.7206     0.0288    40.0076 </r>
       <r>     5.9830     0.1874    40.0568 </r>
       <r>     6.2455     1.1505    40.3587 </r>
       <r>     6.5080     1.7128    40.8083 </r>
       <r>     6.7705     1.6185    41.2332 </r>
       <r>     7.0330     3.0016    42.0210 </r>
       <r>     7.2955     3.1384    42.8448 </r>
       <r>     7.5580     6.1172    44.4505 </r>
       <r>     7.8205     4.0742    45.5199 </r>
       <r>     8.0829     1.9840    46.0407 </r>
       <r>     8.3454     1.0528    46.3170 </r>
       <r>     8.6079     1.1736    46.6251 </r>
       <r>     8.8704     1.5611    47.0349 </r>
       <r>     9.1329     1.5784    47.4492 </r>
       <r>     9.3954     1.3844    47.8126 </r>
       <r>     9.6579     0.7233    48.0024 </r>
       <r>     9.9204     1.5483    48.4088 </r>
       <r>    10.1828     2.1452    48.9719 </r>
       <r>    10.4453     1.5440    49.3772 </r>
       <r>    10.7078     2.4056    50.0086 </r>
       <r>    10.9703     1.8558    50.4958 </r>
       <r>    11.2328     2.8699    51.2491 </r>
       <r>    11.4953     3.0406    52.0472 </r>
       <r>    11.7578     3.0533    52.8487 </r>
       <r>    12.0203     3.6842    53.8157 </r>
       <r>    12.2827     3.9053    54.8408 </r>
       <r>    12.5452     3.6966    55.8111 </r>
       <r>    12.8077     3.2409    56.6618 </r>
       <r>    13.0702     5.1597    58.0162 </r>
       <r>    13.3327     3.3192    58.8875 </r>
       <r>    13.5952     2.8240    59.6287 </r>
       <r>    13.8577     1.3283    59.9774 </r>
       <r>    14.1202     1.0983    60.2657 </r>
       <r>    14.3826     0.3664    60.3618 </r>
       <r>    14.6451     0.7205    60.5510 </r>
       <r>    14.9076     0.4550    60.6704 </r>
       <r>    15.1701     0.3959    60.7743 </r>
       <r>    15.4326     0.6890    60.9552 </r>
       <r>    15.6951     0.3092    61.0363 </r>
       <r>    15.9576     0.4879    61.1644 </r>
       <r>    16.2201     0.5675    61.3134 </r>
       <r>    16.4825     0.6755    61.4907 </r>
       <r>    16.7450     1.0301    61.7610 </r>
       <r>    17.0075     1.8124    62.2368 </r>
       <r>    17.2700     0.4379    62.3517 </r>
       <r>    17.5325     0.4157    62.4608 </r>
       <r>    17.7950     0.3343    62.5486 </r>
       <r>    18.0575     1.4106    62.9188 </r>
       <r>    18.3200     2.0527    63.4576 </r>
       <r>    18.5824     1.7926    63.9282 </r>
       <r>    18.8449     0.2587    63.9961 </r>
       <r>    19.1074     0.0147    64.0000 </r>
       <r>    19.3699     0.0001    64.0000 </r>
       <r>    19.6324     0.0000    64.0000 </r>
       <r>    19.8949     0.0000    64.0000 </r>
       <r>    20.1574     0.0000    64.0000 </r>
       <r>    20.4198     0.0000    64.0000 </r>
       <r>    20.6823     0.0000    64.0000 </r>
       <r>    20.9448     0.0000    64.0000 </r>
       <r>    21.2073     0.0000    64.0000 </r>
       <r>    21.4698     0.0000    64.0000 </r>
       <r>    21.7323     0.0000    64.0000 </r>
       <r>    21.9948     0.0000    64.0000 </r>
       <r>    22.2573     0.0000    64.0000 </r>
       <r>    22.5197     0.0000    64.0000 </r>
      </set>
     </set>
    </array>
   </total>
  </dos>
 </calculation>
 <structure name="finalpos" >
  <crystal>
   <varray name="basis" >
    <v>       3.98600000       0.00000000       0.00000000 </v>
    <v>       0.00000000       3.98600000       0.00000000 </v>
    <v>       0.00000000       0.00000000       4.02984600 </v>
   </varray>
   <i name="volume">     64.02698310 </i>
   <varray name="rec_basis" >
    <v>       0.25087807       0.00000000       0.00000000 </v>
    <v>       0.00000000       0.25087807       0.00000000 </v>
    <v>       0.00000000       0.00000000       0.24814844 </v>
   </varray>
  </crystal>
  <varray name="positions" >
   <v>       0.00000000       0.00000000       0.99032482 </v>
   <v>       0.50000000       0.50000000       0.47519704 </v>
   <v>       0.50000000       0.50000000       0.01433998 </v>
   <v>       0.00000000       0.50000000       0.50506908 </v>
   <v>       0.50000000       0.00000000       0.50506908 </v>
  </varray>
 </structure>
</modeling>
